##############################################################################
#                                                                            #
# F-Fe-H-N         # [NH4]0.75Fe3F9                                #  543199 #
#                                                                            #
##############################################################################
#                                                                            #
#                           Pearson's Crystal Data                           #
#      Crystal Structure Database for Inorganic Compounds (on DVD)           #
#                              Release 2017/18                               #
#                  Editors: Pierre Villars and Karin Cenzual                 #
#                                                                            #
#   Copyright (c) ASM International & Material Phases Data System (MPDS),    #
# Switzerland & National Institute for Materials Science (NIMS), Japan, 2017 #
#                   All rights reserved. Version 2017.08                     #
#                                                                            #
#   This copy of Pearson's Crystal Data is licensed to:                      #
#   University of Alberta, Chemistry Department, 1-5 Installations License         #
#                                                                            #
##############################################################################

data_543199
_audit_creation_date                     2017-12-04
_audit_creation_method
;
Pearson's Crystal Data browser
;
#_database_code_PCD                      543199

# Entry summary

_chemical_formula_structural             '[N H~4~]~0.54~ Fe~3~ F~9~'
_chemical_formula_sum                    'F9 Fe3 H2.16 N0.54'
_chemical_name_mineral                   ?
_chemical_compound_source                ?
_chemical_name_structure_type            Rb~0.81~W~3~O~9~,hP26,193
_chemical_formula_weight                 348.3

# Bibliographic data

_publ_section_title
;
Production of iron(II) fluoride by the thermal decomposition of iron(III) fluoroammonium complexes [ammonium fluoroferrates(III)]
;
_journal_coden_ASTM                      RJICAQ
_journal_name_full                       'Russ. J. Inorg. Chem.'
_journal_year                            1991
_journal_volume                          36
_journal_page_first                      340
_journal_page_last                       343
_journal_language                        English
loop_
 _publ_author_name
 _publ_author_address
'Kuznetsova N.I.'
;
Tajikistan Academy of Sciences
Nikitin Institute of Chemistry
Dushanbe
Tajikistan
;
'Ikrami D.D.'
;
Tajikistan Academy of Sciences
Nikitin Institute of Chemistry
Dushanbe
Tajikistan
;
'Okhunov R.'
;
Tajikistan Academy of Sciences
Nikitin Institute of Chemistry
Dushanbe
Tajikistan
;
'Sidorov V.S.'
;
Tajikistan Academy of Sciences
Nikitin Institute of Chemistry
Dushanbe
Tajikistan
;
'Semenov E.V.'
;
Tajikistan Academy of Sciences
Nikitin Institute of Chemistry
Dushanbe
Tajikistan
;

# Standardized crystallographic data

_cell_length_a                           7.42
_cell_length_b                           7.42
_cell_length_c                           7.52
_cell_angle_alpha                        90
_cell_angle_beta                         90
_cell_angle_gamma                        120
_cell_volume                             358.6
_cell_formula_units_Z                    2
_space_group_IT_number                   193
_space_group_name_H-M_alt                'P 63/m c m'
loop_
 _space_group_symop_id
 _space_group_symop_operation_xyz
 1 'x, y, z'
 2 '-x+y, -x, 1/2-z'
 3 '-x+y, -x, z'
 4 '-x+y, y, -z'
 5 '-x+y, y, 1/2+z'
 6 '-x, -x+y, 1/2-z'
 7 '-x, -x+y, z'
 8 '-x, -y, -z'
 9 '-x, -y, 1/2+z'
 10 '-y, -x, -z'
 11 '-y, -x, 1/2+z'
 12 '-y, x-y, 1/2-z'
 13 '-y, x-y, z'
 14 'x, x-y, -z'
 15 'x, x-y, 1/2+z'
 16 'x, y, 1/2-z'
 17 'x-y, -y, 1/2-z'
 18 'x-y, -y, z'
 19 'x-y, x, -z'
 20 'x-y, x, 1/2+z'
 21 'y, -x+y, -z'
 22 'y, -x+y, 1/2+z'
 23 'y, x, 1/2-z'
 24 'y, x, z'

# Atomic positions taken from type-defining entry

loop_
 _atom_type_symbol
 F
 Fe
 N
loop_
 _atom_site_label
 _atom_site_type_symbol
 _atom_site_symmetry_multiplicity
 _atom_site_Wyckoff_symbol
 _atom_site_fract_x
 _atom_site_fract_y
 _atom_site_fract_z
 _atom_site_occupancy
 F1 F 12 j 0.216 0.423 0.25 1
 Fe1 Fe 6 g 0.48241 0 0.25 1
 F2 F 6 f 0.5 0 0 1
 N1 N 2 b 0 0 0 1


_exptl_crystal_colour                    ?
_exptl_crystal_density_meas              ?
_exptl_crystal_density_diffrn            3.23
_cell_measurement_temperature            ?
_cell_measurement_radiation              'X-rays, Cu Ka'
_cell_measurement_reflns_used            ?
_diffrn_ambient_temperature              ?
_diffrn_measurement_device               'automatic diffractometer'
_diffrn_measurement_device_type          ?
_diffrn_radiation_type                   ?
_diffrn_reflns_number                    ?
_exptl_absorpt_coefficient_mu            ?
_exptl_absorpt_correction_type           ?
_computing_structure_solution            ?
_refine_ls_number_parameters             ?
_refine_ls_number_reflns                 ?
_refine_ls_R_factor_gt                   ?
_refine_ls_wR_factor_gt                  ?

# Published diffraction lines

loop_
 _refln_index_h
 _refln_index_k
 _refln_index_l
 _refln_d_spacing
 _refln_intensity_meas
 1 0 0 64.08 56
 0 0 2 37.67 83
 1 1 0 37.08 31
 1 0 2 32.46 40
 2 0 0 32.11 100
 1 1 2 26.43 11
 2 0 2 24.42 13
 1 0 3 23.39 7
 2 1 1 23.15 10
 3 0 0 21.5 6
 1 1 3 20.76 3
 0 0 4 18.83 18
 3 0 2 18.57 28
 2 2 0 18.53 27
 1 0 4 18.06 6
 3 1 0 17.88 4
 1 1 4 16.81 3
 2 2 2 16.64 17
 2 0 4 16.26 24
 3 1 2 16.11 14
 4 0 0 16.08 13

# End of data set 543199


