##############################################################################
#                                                                            #
# H-N-O-W          # [NH4]W3O9                                     #  310081 #
#                                                                            #
##############################################################################
#                                                                            #
#                           Pearson's Crystal Data                           #
#      Crystal Structure Database for Inorganic Compounds (on DVD)           #
#                              Release 2017/18                               #
#                  Editors: Pierre Villars and Karin Cenzual                 #
#                                                                            #
#   Copyright (c) ASM International & Material Phases Data System (MPDS),    #
# Switzerland & National Institute for Materials Science (NIMS), Japan, 2017 #
#                   All rights reserved. Version 2017.08                     #
#                                                                            #
#   This copy of Pearson's Crystal Data is licensed to:                      #
#   University of Alberta, Chemistry Department, 1-5 Installations License         #
#                                                                            #
##############################################################################

data_310081
_audit_creation_date                     2017-12-01
_audit_creation_method
;
Pearson's Crystal Data browser
;
#_database_code_PCD                      310081

# Entry summary

_chemical_formula_structural             '[N H~4~] W~3~ O~9~'
_chemical_formula_sum                    'H4 N O9 W3'
_chemical_name_mineral                   ?
_chemical_compound_source                ?
_chemical_name_structure_type            Rb~0.81~W~3~O~9~,hP26,193
_chemical_formula_weight                 713.6

# Bibliographic data

_publ_section_title
'Synthesis and study of ammonium tungsten oxide bronze'                       
_journal_coden_ASTM                      INOMAF
_journal_name_full                       'Inorg. Mater.'
_journal_year                            1990
_journal_volume                          26
_journal_page_first                      101
_journal_page_last                       105
_journal_language                        English
loop_
 _publ_author_name
 _publ_author_address
'Volkov V.L.'
;
Russian Academy of Sciences
Institute of Chemistry
Ekaterinburg
Russia
;

# Standardized crystallographic data

_cell_length_a                           7.392
_cell_length_b                           7.392
_cell_length_c                           7.512
_cell_angle_alpha                        90
_cell_angle_beta                         90
_cell_angle_gamma                        120
_cell_volume                             355.5
_cell_formula_units_Z                    2
_space_group_IT_number                   193
_space_group_name_H-M_alt                'P 63/m c m'
loop_
 _space_group_symop_id
 _space_group_symop_operation_xyz
 1 'x, y, z'
 2 '-x+y, -x, 1/2-z'
 3 '-x+y, -x, z'
 4 '-x+y, y, -z'
 5 '-x+y, y, 1/2+z'
 6 '-x, -x+y, 1/2-z'
 7 '-x, -x+y, z'
 8 '-x, -y, -z'
 9 '-x, -y, 1/2+z'
 10 '-y, -x, -z'
 11 '-y, -x, 1/2+z'
 12 '-y, x-y, 1/2-z'
 13 '-y, x-y, z'
 14 'x, x-y, -z'
 15 'x, x-y, 1/2+z'
 16 'x, y, 1/2-z'
 17 'x-y, -y, 1/2-z'
 18 'x-y, -y, z'
 19 'x-y, x, -z'
 20 'x-y, x, 1/2+z'
 21 'y, -x+y, -z'
 22 'y, -x+y, 1/2+z'
 23 'y, x, 1/2-z'
 24 'y, x, z'

# Atomic positions taken from type-defining entry

loop_
 _atom_type_symbol
 O
 W
 N
loop_
 _atom_site_label
 _atom_site_type_symbol
 _atom_site_symmetry_multiplicity
 _atom_site_Wyckoff_symbol
 _atom_site_fract_x
 _atom_site_fract_y
 _atom_site_fract_z
 _atom_site_occupancy
 O1 O 12 j 0.216 0.423 0.25 1
 W1 W 6 g 0.48241 0 0.25 1
 O2 O 6 f 0.5 0 0 1
 N1 N 2 b 0 0 0 1


_exptl_crystal_colour                    ?
_exptl_crystal_density_meas              ?
_exptl_crystal_density_diffrn            6.67
_cell_measurement_temperature            ?
_cell_measurement_radiation              'X-rays, Cu Ka'
_cell_measurement_reflns_used            ?
_diffrn_ambient_temperature              ?
_diffrn_measurement_device               'automatic diffractometer'
_diffrn_measurement_device_type          ?
_diffrn_radiation_type                   ?
_diffrn_reflns_number                    ?
_exptl_absorpt_coefficient_mu            ?
_exptl_absorpt_correction_type           ?
_computing_structure_solution            ?
_refine_ls_number_parameters             ?
_refine_ls_number_reflns                 ?
_refine_ls_R_factor_gt                   ?
_refine_ls_wR_factor_gt                  ?

# Published diffraction lines

loop_
 _refln_index_h
 _refln_index_k
 _refln_index_l
 _refln_d_spacing
 _refln_intensity_meas
 1 0 0 63.08 40
 0 0 2 37.509 65
 1 1 0 36.987 25
 1 1 1 33.143 10
 1 0 2 32.272 40
 2 0 0 31.955 100
 1 1 2 26.367 20
 2 0 2 24.346 85
 2 1 1 22.992 5
 3 0 0 21.346 5
 2 1 2 20.359 5
 0 0 4 18.784 15
 2 2 0 18.476 40
 1 0 4 18.019 5
 3 1 0 17.731 5
 3 1 1 17.277 15
 1 1 4 16.734 5
 2 2 2 16.584 35
 2 0 4 16.208 40
 4 0 0 16.017 30
 4 0 2 14.729 20
 3 1 3 14.485 5
 4 1 0 13.967 5
 4 1 1 13.732 5
 4 1 2 13.091 10

# End of data set 310081


