##############################################################################
#                                                                            #
# F-Fe-H-N         # [NH4]0.75Fe3F9                                #  312951 #
#                                                                            #
##############################################################################
#                                                                            #
#                           Pearson's Crystal Data                           #
#      Crystal Structure Database for Inorganic Compounds (on DVD)           #
#                              Release 2017/18                               #
#                  Editors: Pierre Villars and Karin Cenzual                 #
#                                                                            #
#   Copyright (c) ASM International & Material Phases Data System (MPDS),    #
# Switzerland & National Institute for Materials Science (NIMS), Japan, 2017 #
#                   All rights reserved. Version 2017.08                     #
#                                                                            #
#   This copy of Pearson's Crystal Data is licensed to:                      #
#   University of Alberta, Chemistry Department, 1-5 Installations License         #
#                                                                            #
##############################################################################

data_312951
_audit_creation_date                     2017-12-01
_audit_creation_method
;
Pearson's Crystal Data browser
;
#_database_code_PCD                      312951

# Entry summary

_chemical_formula_structural             '[N H~4~]~0.75~ Fe~3~ F~9~'
_chemical_formula_sum                    'F9 Fe3 H3 N0.75'
_chemical_name_mineral                   ?
_chemical_compound_source                ?
_chemical_name_structure_type            Rb~0.81~W~3~O~9~,hP26,193
_chemical_formula_weight                 352.1

# Bibliographic data

_publ_section_title
;
Les bronzes fluor\'es M~x~FeF~3~ (M= Na, K, Rb, Cs, Tl, NH~4~)
;
_journal_coden_ASTM                      BSCFAS
_journal_name_full                       'Bull. Soc. Chim. Fr.'
_journal_year                            1970
_journal_volume                          ?
_journal_page_first                      3411
_journal_page_last                       3413
_journal_language                        French
loop_
 _publ_author_name
 _publ_author_address
'Tressaud A.'
;
Talence Bordeaux I University
Laboratoire de Chimie Min\'erale Structurale
Talence
France
;
'De Pape R.'
;
Talence Bordeaux I University
Laboratoire de Chimie Min\'erale Structurale
Talence
France
;
'Portier J.'
;
Talence Bordeaux I University
Laboratoire de Chimie Min\'erale Structurale
Talence
France
;
'Hagenmuller P.'
;
Talence Bordeaux I University
Laboratoire de Chimie Min\'erale Structurale
Talence
France
;

# Standardized crystallographic data

_cell_length_a                           7.42
_cell_length_b                           7.42
_cell_length_c                           7.54
_cell_angle_alpha                        90
_cell_angle_beta                         90
_cell_angle_gamma                        120
_cell_volume                             359.5
_cell_formula_units_Z                    2
_space_group_IT_number                   193
_space_group_name_H-M_alt                'P 63/m c m'
loop_
 _space_group_symop_id
 _space_group_symop_operation_xyz
 1 'x, y, z'
 2 '-x+y, -x, 1/2-z'
 3 '-x+y, -x, z'
 4 '-x+y, y, -z'
 5 '-x+y, y, 1/2+z'
 6 '-x, -x+y, 1/2-z'
 7 '-x, -x+y, z'
 8 '-x, -y, -z'
 9 '-x, -y, 1/2+z'
 10 '-y, -x, -z'
 11 '-y, -x, 1/2+z'
 12 '-y, x-y, 1/2-z'
 13 '-y, x-y, z'
 14 'x, x-y, -z'
 15 'x, x-y, 1/2+z'
 16 'x, y, 1/2-z'
 17 'x-y, -y, 1/2-z'
 18 'x-y, -y, z'
 19 'x-y, x, -z'
 20 'x-y, x, 1/2+z'
 21 'y, -x+y, -z'
 22 'y, -x+y, 1/2+z'
 23 'y, x, 1/2-z'
 24 'y, x, z'

# Atomic positions taken from type-defining entry

loop_
 _atom_type_symbol
 F
 Fe
 N
loop_
 _atom_site_label
 _atom_site_type_symbol
 _atom_site_symmetry_multiplicity
 _atom_site_Wyckoff_symbol
 _atom_site_fract_x
 _atom_site_fract_y
 _atom_site_fract_z
 _atom_site_occupancy
 F1 F 12 j 0.216 0.423 0.25 1
 Fe1 Fe 6 g 0.48241 0 0.25 1
 F2 F 6 f 0.5 0 0 1
 N1 N 2 b 0 0 0 1


_exptl_crystal_colour                    ?
_exptl_crystal_density_meas              3.20(3)
_exptl_crystal_density_diffrn            3.25
_cell_measurement_temperature            ?
_cell_measurement_radiation              'X-rays, Cu Ka'
_cell_measurement_reflns_used            ?
_diffrn_ambient_temperature              ?
_diffrn_measurement_device               'Debye-Scherrer film'
_diffrn_measurement_device_type          ?
_diffrn_radiation_type                   ?
_diffrn_reflns_number                    ?
_exptl_absorpt_coefficient_mu            ?
_exptl_absorpt_correction_type           ?
_computing_structure_solution            ?
_refine_ls_number_parameters             ?
_refine_ls_number_reflns                 ?
_refine_ls_R_factor_gt                   ?
_refine_ls_wR_factor_gt                  ?

# End of data set 312951


