##############################################################################
#                                                                            #
# F-H-N            # [NH4]F ht                                     # 1501560 #
#                                                                            #
##############################################################################
#                                                                            #
#                           Pearson's Crystal Data                           #
#      Crystal Structure Database for Inorganic Compounds (on DVD)           #
#                              Release 2017/18                               #
#                  Editors: Pierre Villars and Karin Cenzual                 #
#                                                                            #
#   Copyright (c) ASM International & Material Phases Data System (MPDS),    #
# Switzerland & National Institute for Materials Science (NIMS), Japan, 2017 #
#                   All rights reserved. Version 2017.08                     #
#                                                                            #
#   This copy of Pearson's Crystal Data is licensed to:                      #
#   University of Alberta, Chemistry Department, 1-5 Installations License         #
#                                                                            #
##############################################################################

data_1501560
_audit_creation_date                     2017-12-05
_audit_creation_method
;
Pearson's Crystal Data browser
;
#_database_code_PCD                      1501560

# Entry summary

_chemical_formula_structural             '[N H~4~] F'
_chemical_formula_sum                    'F H4 N'
_chemical_name_mineral                   ?
_chemical_compound_source                ?
_chemical_name_structure_type            ZnO,hP4,186
_chemical_formula_weight                 37.0

# Bibliographic data

_publ_section_title
'The wurtzite z parameter and linear compressibilities for NH~4~F'            
_journal_coden_ASTM                      ACBCAR
_journal_name_full                       'Acta Crystallogr. B'
_journal_year                            1970
_journal_volume                          26
_journal_page_first                      1635
_journal_page_last                       1637
_journal_language                        English
loop_
 _publ_author_name
 _publ_author_address
'Morosin B.'
;
Sandia Corp.
Albuquerque
U.S.A. New Mexico
;

# Standardized crystallographic data

_cell_length_a                           4.4389
_cell_length_b                           4.4389
_cell_length_c                           7.1635
_cell_angle_alpha                        90
_cell_angle_beta                         90
_cell_angle_gamma                        120
_cell_volume                             122.2
_cell_formula_units_Z                    2
_space_group_IT_number                   186
_space_group_name_H-M_alt                'P 63 m c'
loop_
 _space_group_symop_id
 _space_group_symop_operation_xyz
 1 'x, y, z'
 2 '-x+y, -x, z'
 3 '-x+y, y, z'
 4 '-x, -x+y, 1/2+z'
 5 '-x, -y, 1/2+z'
 6 '-y, -x, z'
 7 '-y, x-y, z'
 8 'x, x-y, z'
 9 'x-y, -y, 1/2+z'
 10 'x-y, x, 1/2+z'
 11 'y, -x+y, 1/2+z'
 12 'y, x, 1/2+z'
loop_
 _atom_type_symbol
 F
 N
 H
loop_
 _atom_site_label
 _atom_site_type_symbol
 _atom_site_symmetry_multiplicity
 _atom_site_Wyckoff_symbol
 _atom_site_fract_x
 _atom_site_fract_y
 _atom_site_fract_z
 _atom_site_occupancy
 F F 2 b 0.333333 0.666667 0.0 1
 N N 2 b 0.333333 0.666667 0.3781 1
 H2 H 6 c 0.44 0.56 0.421 1
 H1 H 2 b 0.333333 0.666667 0.217 1


_exptl_crystal_colour                    ?
_exptl_crystal_density_meas              ?
_exptl_crystal_density_diffrn            1.01
_cell_measurement_temperature            ?
_cell_measurement_radiation              X-rays
_cell_measurement_reflns_used            ?
_diffrn_ambient_temperature              ?
_diffrn_measurement_device               'automatic diffractometer'
_diffrn_measurement_device_type          ?
_diffrn_radiation_type                   'X-rays, Mo Ka'
_diffrn_reflns_number                    108
_exptl_absorpt_coefficient_mu            ?
_exptl_absorpt_correction_type           ?
_computing_structure_solution
'starting values from the literature, Fourier synthesis'                      
_refine_ls_number_parameters             ?
_refine_ls_number_reflns                 98
_refine_ls_R_factor_gt                   0.046
_refine_ls_wR_factor_gt                  ?

# End of data set 1501560


