##############################################################################
#                                                                            #
# N-O              # [NO2][NO3]                                    #  541158 #
#                                                                            #
##############################################################################
#                                                                            #
#                           Pearson's Crystal Data                           #
#      Crystal Structure Database for Inorganic Compounds (on DVD)           #
#                              Release 2017/18                               #
#                  Editors: Pierre Villars and Karin Cenzual                 #
#                                                                            #
#   Copyright (c) ASM International & Material Phases Data System (MPDS),    #
# Switzerland & National Institute for Materials Science (NIMS), Japan, 2017 #
#                   All rights reserved. Version 2017.08                     #
#                                                                            #
#   This copy of Pearson's Crystal Data is licensed to:                      #
#   University of Alberta, Chemistry Department, 1-5 Installations License         #
#                                                                            #
##############################################################################

data_541158
_audit_creation_date                     2017-12-04
_audit_creation_method
;
Pearson's Crystal Data browser
;
#_database_code_PCD                      541158

# Entry summary

_chemical_formula_structural             '[N O~2~] [N O~3~]'
_chemical_formula_sum                    'N2 O5'
_chemical_name_mineral                   ?
_chemical_compound_source                ?
_chemical_name_structure_type            [NO~2~][NO~3~],hP14,194
_chemical_formula_weight                 108.0

# Bibliographic data

_publ_section_title
;
Structure cristalline de l'anhydride azotique, N~2~O~5~
;
_journal_coden_ASTM                      ACCRA9
_journal_name_full                       'Acta Crystallogr.'
_journal_year                            1950
_journal_volume                          3
_journal_page_first                      290
_journal_page_last                       294
_journal_language                        French
loop_
 _publ_author_name
 _publ_author_address
'Grison E.'
;
Paris University
Laboratoire Central des Services Chimiques de l'Etat
Paris
France
;
'Eriks K.'
;
Amsterdam University
Laboratorium voor Algemene en Anorganische Chemie
Amsterdam
Netherlands
;
'De Vries J.L.'
;
Amsterdam University
Laboratorium voor Algemene en Anorganische Chemie
Amsterdam
Netherlands
;

# Standardized crystallographic data

_cell_length_a                           5.45
_cell_length_b                           5.45
_cell_length_c                           6.66
_cell_angle_alpha                        90
_cell_angle_beta                         90
_cell_angle_gamma                        120
_cell_volume                             171.32
_cell_formula_units_Z                    2
_space_group_IT_number                   194
_space_group_name_H-M_alt                'P 63/m m c'
loop_
 _space_group_symop_id
 _space_group_symop_operation_xyz
 1 'x, y, z'
 2 '-x+y, -x, 1/2-z'
 3 '-x+y, -x, z'
 4 '-x+y, y, 1/2-z'
 5 '-x+y, y, z'
 6 '-x, -x+y, -z'
 7 '-x, -x+y, 1/2+z'
 8 '-x, -y, -z'
 9 '-x, -y, 1/2+z'
 10 '-y, -x, 1/2-z'
 11 '-y, -x, z'
 12 '-y, x-y, 1/2-z'
 13 '-y, x-y, z'
 14 'x, x-y, 1/2-z'
 15 'x, x-y, z'
 16 'x, y, 1/2-z'
 17 'x-y, -y, -z'
 18 'x-y, -y, 1/2+z'
 19 'x-y, x, -z'
 20 'x-y, x, 1/2+z'
 21 'y, -x+y, -z'
 22 'y, -x+y, 1/2+z'
 23 'y, x, -z'
 24 'y, x, 1/2+z'
loop_
 _atom_type_symbol
 O
 N
loop_
 _atom_site_label
 _atom_site_type_symbol
 _atom_site_symmetry_multiplicity
 _atom_site_Wyckoff_symbol
 _atom_site_fract_x
 _atom_site_fract_y
 _atom_site_fract_z
 _atom_site_occupancy
 O1 O 6 h 0.135 0.270 0.25 1
 O2 O 4 f 0.333333 0.666667 0.573 1
 N2 N 2 d 0.333333 0.666667 0.75 1
 N1 N 2 b 0 0 0.25 1


_exptl_crystal_colour                    colorless
_exptl_crystal_density_meas              2.05
_exptl_crystal_density_diffrn            2.09
_cell_measurement_temperature            293
_cell_measurement_radiation              'X-rays, Cu Ka'
_cell_measurement_reflns_used            ?
_diffrn_ambient_temperature              293
_diffrn_measurement_device               'Weissenberg photographs'
_diffrn_measurement_device_type          ?
_diffrn_radiation_type                   'X-rays, Mo Ka'
_diffrn_reflns_number                    ?
_exptl_absorpt_coefficient_mu            ?
_exptl_absorpt_correction_type           ?
_computing_structure_solution
'crystal chemical considerations, Fourier synthesis'                          
_refine_ls_number_parameters             ?
_refine_ls_number_reflns                 ?
_refine_ls_R_factor_gt                   0.127
_refine_ls_wR_factor_gt                  ?

# End of data set 541158


