##############################################################################
#                                                                            #
# Ag-In-Se-Si      # Ag2In2SiSe6 rt                                # 1522294 #
#                                                                            #
##############################################################################
#                                                                            #
#                           Pearson's Crystal Data                           #
#      Crystal Structure Database for Inorganic Compounds (on DVD)           #
#                              Release 2017/18                               #
#                  Editors: Pierre Villars and Karin Cenzual                 #
#                                                                            #
#   Copyright (c) ASM International & Material Phases Data System (MPDS),    #
# Switzerland & National Institute for Materials Science (NIMS), Japan, 2017 #
#                   All rights reserved. Version 2017.08                     #
#                                                                            #
#   This copy of Pearson's Crystal Data is licensed to:                      #
#   University of Alberta, Chemistry Department, 1-5 Installations License         #
#                                                                            #
##############################################################################

data_1522294
_audit_creation_date                     2017-12-05
_audit_creation_method
;
Pearson's Crystal Data browser
;
#_database_code_PCD                      1522294

# Entry summary

_chemical_formula_structural             'Ag~2~ In~2~ Si Se~6~'
_chemical_formula_sum                    'Ag2 In2 Se6 Si'
_chemical_name_mineral                   ?
_chemical_compound_source                ?
_chemical_name_structure_type            Ag~2~In~2~GeSe~6~,mS44,9
_chemical_formula_weight                 947.2

# Bibliographic data

_publ_section_title
;
X-ray powder diffraction diffraction refinement of Ag~2~In~2~SiSe~6~ structure and phase diagram of the AgInSe~2~-SiSe~2~ system
;
_journal_coden_ASTM                      JALCEU
_journal_name_full                       'J. Alloys Compd.'
_journal_year                            2006
_journal_volume                          414
_journal_page_first                      73
_journal_page_last                       77
_journal_language                        English
loop_
 _publ_author_name
 _publ_author_address
'Olekseyuk I.D.'
;
Lutsk Lesya Ukrainka Volyn State University
Department of General and Inorganic Chemistry
Lutsk
Ukraine
;
'Sachanyuk V.P.'
;
Lutsk Lesya Ukrainka Volyn State University
Department of General and Inorganic Chemistry
Lutsk
Ukraine
;
'Parasyuk O.V.'
;
Lutsk Lesya Ukrainka Volyn State University
Department of General and Inorganic Chemistry
Lutsk
Ukraine
;

# Standardized crystallographic data

_cell_length_a                           12.6683
_cell_length_b                           7.4565
_cell_length_c                           12.6133
_cell_angle_alpha                        90
_cell_angle_beta                         109.286
_cell_angle_gamma                        90
_cell_volume                             1124.6
_cell_formula_units_Z                    4
_space_group_IT_number                   9
_space_group_name_H-M_alt                'C 1 c 1'
loop_
 _space_group_symop_id
 _space_group_symop_operation_xyz
 1 'x, y, z'
 2 'x, -y, 1/2+z'
 3 '1/2+x, 1/2+y, z'
 4 '1/2+x, 1/2-y, 1/2+z'
loop_
 _atom_type_symbol
 Se
 Si
 In
 Ag
loop_
 _atom_site_label
 _atom_site_type_symbol
 _atom_site_symmetry_multiplicity
 _atom_site_Wyckoff_symbol
 _atom_site_fract_x
 _atom_site_fract_y
 _atom_site_fract_z
 _atom_site_occupancy
 Se3 Se 4 a 0.0 0.009 0.0 1
 Se4 Se 4 a 0.0026 0.269 0.2552 1
 Se6 Se 4 a 0.0327 0.5185 0.0338 1
 Si1 Si 4 a 0.0664 0.237 0.4447 1
 In2 In 4 a 0.1377 0.0587 0.2013 1
 Se1 Se 4 a 0.2604 0.2468 0.4947 1
 Ag1 Ag 4 a 0.3022 0.5899 0.1965 1
 Se2 Se 4 a 0.3094 0.2353 0.1897 1
 In1 In 4 a 0.3223 0.0945 0.0052 1
 Ag2 Ag 4 a 0.5049 0.2042 0.3585 1
 Se5 Se 4 a 0.6926 0.2621 0.314 1


_exptl_crystal_colour                    ?
_exptl_crystal_density_meas              ?
_exptl_crystal_density_diffrn            5.59
_cell_measurement_temperature            ?
_cell_measurement_radiation              'X-rays, Cu Ka'
_cell_measurement_wavelength             1.54185
_pd_proc_wavelength                      1.54185
_cell_measurement_reflns_used            ?
_diffrn_ambient_temperature              ?
_diffrn_measurement_device               'automatic diffractometer'
_diffrn_measurement_device_type          DRON-4.13
_diffrn_radiation_type                   'X-rays, Cu Ka'
_diffrn_radiation_wavelength             1.54185
_diffrn_reflns_number                    ?
_exptl_absorpt_coefficient_mu            87.309
_exptl_absorpt_correction_type           ?
_computing_structure_solution            'starting values from the literature'
_refine_ls_number_parameters             ?
_refine_ls_number_reflns                 ?
_refine_ls_R_factor_gt                   ?
_refine_ls_wR_factor_gt                  ?
_pd_proc_ls_proof_R_factor               0.1096
_pd_proc_ls_proof_wR_factor              ?
_refine_ls_R_I_factor                    0.0758

# End of data set 1522294


