##############################################################################
#                                                                            #
# Ag-S             # Ag2S lt                                       #  309129 #
#                                                                            #
##############################################################################
#                                                                            #
#                           Pearson's Crystal Data                           #
#      Crystal Structure Database for Inorganic Compounds (on DVD)           #
#                              Release 2017/18                               #
#                  Editors: Pierre Villars and Karin Cenzual                 #
#                                                                            #
#   Copyright (c) ASM International & Material Phases Data System (MPDS),    #
# Switzerland & National Institute for Materials Science (NIMS), Japan, 2017 #
#                   All rights reserved. Version 2017.08                     #
#                                                                            #
#   This copy of Pearson's Crystal Data is licensed to:                      #
#   University of Alberta, Chemistry Department, 1-5 Installations License         #
#                                                                            #
##############################################################################

data_309129
_audit_creation_date                     2017-12-01
_audit_creation_method
;
Pearson's Crystal Data browser
;
#_database_code_PCD                      309129

# Entry summary

_chemical_formula_structural             'Ag~2~ S'
_chemical_formula_sum                    'Ag2 S'
_chemical_name_mineral                   acanthite
_chemical_compound_source                ?
_chemical_name_structure_type            Ag~2~S-a,mP12,14
_chemical_formula_weight                 247.8

# Bibliographic data

_publ_section_title
'Preparation of single crystals of silver chalcogenides'                      
_journal_coden_ASTM                      INOMAF
_journal_name_full                       'Inorg. Mater.'
_journal_year                            1971
_journal_volume                          7
_journal_page_first                      1274
_journal_page_last                       ?
_journal_language                        English
loop_
 _publ_author_name
 _publ_author_address
'Mustafaev N.M.'
;
Azerbaijan Academy of Sciences
Institute of Physics
Baku
Azerbaijan
;
'Abbasov A.S.'
;
Azerbaijan Academy of Sciences
Institute of Physics
Baku
Azerbaijan
;
'Asadov Y.G.'
;
Azerbaijan Academy of Sciences
Institute of Physics
Baku
Azerbaijan
;

# Standardized crystallographic data

_cell_length_a                           4.23
_cell_length_b                           6.91
_cell_length_c                           8.2915
_cell_angle_alpha                        90
_cell_angle_beta                         110.622
_cell_angle_gamma                        90
_cell_volume                             226.8
_cell_formula_units_Z                    4
_space_group_IT_number                   14
_space_group_name_H-M_alt                'P 1 21/c 1'
loop_
 _space_group_symop_id
 _space_group_symop_operation_xyz
 1 'x, y, z'
 2 '-x, -y, -z'
 3 '-x, 1/2+y, 1/2-z'
 4 'x, 1/2-y, 1/2+z'

# Atomic positions taken from type-defining entry

loop_
 _atom_type_symbol
 Ag
 S
loop_
 _atom_site_label
 _atom_site_type_symbol
 _atom_site_symmetry_multiplicity
 _atom_site_Wyckoff_symbol
 _atom_site_fract_x
 _atom_site_fract_y
 _atom_site_fract_z
 _atom_site_occupancy
 Ag1 Ag 4 e 0.0438 0.0169 0.3075 1
 S1 S 4 e 0.2612 0.2383 0.1306 1
 Ag2 Ag 4 e 0.6465 0.3213 0.4362 1


_exptl_crystal_colour                    ?
_exptl_crystal_density_meas              ?
_exptl_crystal_density_diffrn            7.26
_cell_measurement_temperature            ?
_cell_measurement_radiation              X-rays
_cell_measurement_reflns_used            ?
_diffrn_ambient_temperature              ?
_diffrn_measurement_device               'rotation photographs'
_diffrn_measurement_device_type          ?
_diffrn_radiation_type                   ?
_diffrn_reflns_number                    ?
_exptl_absorpt_coefficient_mu            ?
_exptl_absorpt_correction_type           ?
_computing_structure_solution            ?
_refine_ls_number_parameters             ?
_refine_ls_number_reflns                 ?
_refine_ls_R_factor_gt                   ?
_refine_ls_wR_factor_gt                  ?

# End of data set 309129


