##############################################################################
#                                                                            #
# Ag-F-In          # Ag3InF6 rt                                    #  379689 #
#                                                                            #
##############################################################################
#                                                                            #
#                           Pearson's Crystal Data                           #
#      Crystal Structure Database for Inorganic Compounds (on DVD)           #
#                              Release 2017/18                               #
#                  Editors: Pierre Villars and Karin Cenzual                 #
#                                                                            #
#   Copyright (c) ASM International & Material Phases Data System (MPDS),    #
# Switzerland & National Institute for Materials Science (NIMS), Japan, 2017 #
#                   All rights reserved. Version 2017.08                     #
#                                                                            #
#   This copy of Pearson's Crystal Data is licensed to:                      #
#   University of Alberta, Chemistry Department, 1-5 Installations License         #
#                                                                            #
##############################################################################

data_379689
_audit_creation_date                     2017-12-01
_audit_creation_method
;
Pearson's Crystal Data browser
;
#_database_code_PCD                      379689

# Entry summary

_chemical_formula_structural             'Ag~3~ In F~6~'
_chemical_formula_sum                    'Ag3 F6 In'
_chemical_name_mineral                   ?
_chemical_compound_source                ?
_chemical_name_structure_type            Na~3~AlF~6~,mP20,14
_chemical_formula_weight                 552.4

# Bibliographic data

_publ_section_title
;
Structural and magnetic properties of ternary silver fluorides with a cryolite-related structure
;
_journal_coden_ASTM                      SSCOA4
_journal_name_full                       'Solid State Commun.'
_journal_year                            1988
_journal_volume                          68
_journal_page_first                      363
_journal_page_last                       367
_journal_language                        English
loop_
 _publ_author_name
 _publ_author_address
'Grannec J.'
;
Talence Bordeaux I University
Laboratoire de Chimie du Solide
Talence
France
;
'Yacoubi A.'
;
Talence Bordeaux I University
Laboratoire de Chimie du Solide
Talence
France
;
'Tressaud A.'
;
Talence Bordeaux I University
Laboratoire de Chimie du Solide
Talence
France
;
'Rabardel L.'
;
Talence Bordeaux I University
Laboratoire de Chimie du Solide
Talence
France
;

# Standardized crystallographic data

_cell_length_a                           5.934
_cell_length_b                           6.094
_cell_length_c                           10.2411
_cell_angle_alpha                        90
_cell_angle_beta                         123.795
_cell_angle_gamma                        90
_cell_volume                             307.8
_cell_formula_units_Z                    2
_space_group_IT_number                   14
_space_group_name_H-M_alt                'P 1 21/c 1'
loop_
 _space_group_symop_id
 _space_group_symop_operation_xyz
 1 'x, y, z'
 2 '-x, -y, -z'
 3 '-x, 1/2+y, 1/2-z'
 4 'x, 1/2-y, 1/2+z'

# Atomic positions taken from type-defining entry

loop_
 _atom_type_symbol
 F
 Ag
 In
loop_
 _atom_site_label
 _atom_site_type_symbol
 _atom_site_symmetry_multiplicity
 _atom_site_Wyckoff_symbol
 _atom_site_fract_x
 _atom_site_fract_y
 _atom_site_fract_z
 _atom_site_occupancy
 F1 F 4 e 0.116 0.0442 0.2196 1
 F2 F 4 e 0.2302 0.7317 0.0609 1
 Ag1 Ag 4 e 0.2631 0.4489 0.2512 1
 F3 F 4 e 0.3168 0.1741 0.0425 1
 Ag2 Ag 2 d 0.5 0 0.5 1
 In1 In 2 a 0 0 0 1


_exptl_crystal_colour                    ?
_exptl_crystal_density_meas              5.94(5)
_exptl_crystal_density_diffrn            5.96
_cell_measurement_temperature            300
_cell_measurement_radiation              X-rays
_cell_measurement_reflns_used            ?
_diffrn_ambient_temperature              ?
_diffrn_measurement_device               diffractometer
_diffrn_measurement_device_type          ?
_diffrn_radiation_type                   ?
_diffrn_reflns_number                    ?
_exptl_absorpt_coefficient_mu            ?
_exptl_absorpt_correction_type           ?
_computing_structure_solution            ?
_refine_ls_number_parameters             ?
_refine_ls_number_reflns                 ?
_refine_ls_R_factor_gt                   ?
_refine_ls_wR_factor_gt                  ?

# End of data set 379689


