##############################################################################
#                                                                            #
# Ag-O             # Ag3O4 rt                                      #  541369 #
#                                                                            #
##############################################################################
#                                                                            #
#                           Pearson's Crystal Data                           #
#      Crystal Structure Database for Inorganic Compounds (on DVD)           #
#                              Release 2017/18                               #
#                  Editors: Pierre Villars and Karin Cenzual                 #
#                                                                            #
#   Copyright (c) ASM International & Material Phases Data System (MPDS),    #
# Switzerland & National Institute for Materials Science (NIMS), Japan, 2017 #
#                   All rights reserved. Version 2017.08                     #
#                                                                            #
#   This copy of Pearson's Crystal Data is licensed to:                      #
#   University of Alberta, Chemistry Department, 1-5 Installations License         #
#                                                                            #
##############################################################################

data_541369
_audit_creation_date                     2017-12-04
_audit_creation_method
;
Pearson's Crystal Data browser
;
#_database_code_PCD                      541369

# Entry summary

_chemical_formula_structural             'Ag~3~ O~4~'
_chemical_formula_sum                    'Ag3 O4'
_chemical_name_mineral                   ?
_chemical_compound_source                ?
_chemical_name_structure_type            Ag~3~O~4~,mP14,14
_chemical_formula_weight                 387.6

# Bibliographic data

_publ_section_title
'Ag~3~O~4~, das erste Silber(II,III)-oxid'                                    
_journal_coden_ASTM                      ANCEAD
_journal_name_full                       'Angew. Chem.'
_journal_year                            1986
_journal_volume                          98
_journal_page_first                      78
_journal_page_last                       79
_journal_language                        German
loop_
 _publ_author_name
 _publ_author_address
'Standke B.'
;
Hannover Gottfried Wilhelm Leibniz University
Institut f\"ur Anorganische Chemie
Hannover
Germany
;
'Jansen M.'
;
Hannover Gottfried Wilhelm Leibniz University
Institut f\"ur Anorganische Chemie
Hannover
Germany
;

# Standardized crystallographic data

_cell_length_a                           3.582
_cell_length_b                           9.211
_cell_length_c                           5.686
_cell_angle_alpha                        90
_cell_angle_beta                         106.1
_cell_angle_gamma                        90
_cell_volume                             180.24
_cell_formula_units_Z                    2
_space_group_IT_number                   14
_space_group_name_H-M_alt                'P 1 21/c 1'
loop_
 _space_group_symop_id
 _space_group_symop_operation_xyz
 1 'x, y, z'
 2 '-x, -y, -z'
 3 '-x, 1/2+y, 1/2-z'
 4 'x, 1/2-y, 1/2+z'

# Atomic positions taken from type-defining entry

loop_
 _atom_type_symbol
 O
 Ag
loop_
 _atom_site_label
 _atom_site_type_symbol
 _atom_site_symmetry_multiplicity
 _atom_site_Wyckoff_symbol
 _atom_site_fract_x
 _atom_site_fract_y
 _atom_site_fract_z
 _atom_site_occupancy
 O1 O 4 e 0.0366 0.3119 0.3244 1
 Ag1 Ag 4 e 0.2849 0.3580 0.0481 1
 O2 O 4 e 0.4879 0.0499 0.2736 1
 Ag2 Ag 2 a 0 0 0 1


_exptl_crystal_colour                    ?
_exptl_crystal_density_meas              ?
_exptl_crystal_density_diffrn            7.14
_cell_measurement_temperature            223
_cell_measurement_radiation              'X-rays, Mo Ka'
_cell_measurement_reflns_used            ?
_diffrn_ambient_temperature              ?
_diffrn_measurement_device               'automatic diffractometer'
_diffrn_measurement_device_type          ?
_diffrn_radiation_type                   ?
_diffrn_reflns_number                    ?
_exptl_absorpt_coefficient_mu            ?
_exptl_absorpt_correction_type           ?
_computing_structure_solution            ?
_refine_ls_number_parameters             ?
_refine_ls_number_reflns                 ?
_refine_ls_R_factor_gt                   ?
_refine_ls_wR_factor_gt                  ?

# End of data set 541369


