##############################################################################
#                                                                            #
# Ag-Br            # AgBr hp                                       # 1521485 #
#                                                                            #
##############################################################################
#                                                                            #
#                           Pearson's Crystal Data                           #
#      Crystal Structure Database for Inorganic Compounds (on DVD)           #
#                              Release 2017/18                               #
#                  Editors: Pierre Villars and Karin Cenzual                 #
#                                                                            #
#   Copyright (c) ASM International & Material Phases Data System (MPDS),    #
# Switzerland & National Institute for Materials Science (NIMS), Japan, 2017 #
#                   All rights reserved. Version 2017.08                     #
#                                                                            #
#   This copy of Pearson's Crystal Data is licensed to:                      #
#   University of Alberta, Chemistry Department, 1-5 Installations License         #
#                                                                            #
##############################################################################

data_1521485
_audit_creation_date                     2017-12-05
_audit_creation_method
;
Pearson's Crystal Data browser
;
#_database_code_PCD                      1521485

# Entry summary

_chemical_formula_structural             'Ag Br'
_chemical_formula_sum                    'Ag Br'
_chemical_name_mineral                   ?
_chemical_compound_source                ?
_chemical_name_structure_type            K[NH~2~],mP4,11
_chemical_formula_weight                 187.8

# Bibliographic data

_publ_section_title
'Pressure-induced phase transitions in AgCl, AgBr, and AgI'                   
_journal_coden_ASTM                      PRBMDO
_journal_name_full
'Phys. Rev. B: Condens. Matter Mater. Phys.'                                  
_journal_year                            1999
_journal_volume                          59
_journal_page_first                      750
_journal_page_last                       761
_journal_language                        English
loop_
 _publ_author_name
 _publ_author_address
'Hull S.'
;
Rutherford Appleton Laboratory (STFC)
ISIS Facility
Chilton-Didcot
United Kingdom
;
'Keen D.A.'
;
Rutherford Appleton Laboratory (STFC)
ISIS Facility
Chilton-Didcot
United Kingdom
;

# Standardized crystallographic data

_cell_length_a                           3.791
_cell_length_b                           3.984
_cell_length_c                           5.496
_cell_angle_alpha                        90
_cell_angle_beta                         97.05
_cell_angle_gamma                        90
_cell_volume                             82.4
_cell_formula_units_Z                    2
_space_group_IT_number                   11
_space_group_name_H-M_alt                'P 1 21/m 1'
loop_
 _space_group_symop_id
 _space_group_symop_operation_xyz
 1 'x, y, z'
 2 '-x, -y, -z'
 3 '-x, 1/2+y, -z'
 4 'x, 1/2-y, z'
loop_
 _atom_type_symbol
 Ag
 Br
loop_
 _atom_site_label
 _atom_site_type_symbol
 _atom_site_symmetry_multiplicity
 _atom_site_Wyckoff_symbol
 _atom_site_fract_x
 _atom_site_fract_y
 _atom_site_fract_z
 _atom_site_occupancy
 Ag Ag 2 e 0.161 0.25 0.216 1
 Br Br 2 e 0.291 0.25 0.689 1


_exptl_crystal_colour                    ?
_exptl_crystal_density_meas              ?
_exptl_crystal_density_diffrn            7.57
_cell_measurement_temperature            ?
_cell_measurement_pressure               9e+006
_cell_measurement_radiation              'X-rays, synchrotron'
_cell_measurement_wavelength             0.4868
_pd_proc_wavelength                      0.4868
_cell_measurement_reflns_used            ?
_diffrn_ambient_pressure                 9e+006
_diffrn_ambient_temperature              ?
_diffrn_measurement_device               'automatic diffractometer'
_diffrn_measurement_device_type
'United Kingdom, Cheshire, Daresbury Synchrotron Radiation Source, 9.1 station'
_diffrn_radiation_type                   'X-rays, synchrotron'
_diffrn_radiation_wavelength             0.4868
_diffrn_reflns_number                    ?
_exptl_absorpt_coefficient_mu            ?
_exptl_absorpt_correction_type           ?
_computing_structure_solution            'starting values from the literature'
_refine_ls_number_parameters             ?
_refine_ls_number_reflns                 ?
_refine_ls_R_factor_gt                   ?
_refine_ls_wR_factor_gt                  ?
_pd_proc_ls_proof_R_factor               ?
_pd_proc_ls_proof_wR_factor              ?
_refine_ls_R_I_factor                    ?

# End of data set 1521485


