##############################################################################
#                                                                            #
# Ag-Ce-Ge         # AgCeGe                                        #  539235 #
#                                                                            #
##############################################################################
#                                                                            #
#                           Pearson's Crystal Data                           #
#      Crystal Structure Database for Inorganic Compounds (on DVD)           #
#                              Release 2017/18                               #
#                  Editors: Pierre Villars and Karin Cenzual                 #
#                                                                            #
#   Copyright (c) ASM International & Material Phases Data System (MPDS),    #
# Switzerland & National Institute for Materials Science (NIMS), Japan, 2017 #
#                   All rights reserved. Version 2017.08                     #
#                                                                            #
#   This copy of Pearson's Crystal Data is licensed to:                      #
#   University of Alberta, Chemistry Department, 1-5 Installations License         #
#                                                                            #
##############################################################################

data_539235
_audit_creation_date                     2017-12-04
_audit_creation_method
;
Pearson's Crystal Data browser
;
#_database_code_PCD                      539235

# Entry summary

_chemical_formula_structural             'Ag Ce Ge'
_chemical_formula_sum                    'Ag Ce Ge'
_chemical_name_mineral                   ?
_chemical_compound_source                ?
_chemical_name_structure_type            NdPtSb,hP6,186
_chemical_formula_weight                 320.6

# Bibliographic data

_publ_section_title
;
The crystal structure, heat capacity (1.5-80 K) and magnetic susceptibility (1.6-300 K) of LaAgGe and CeAgGe
;
_journal_coden_ASTM                      JCOMAH
_journal_name_full                       'J. Less-Common Met.'
_journal_year                            1991
_journal_volume                          168
_journal_page_first                      257
_journal_page_last                       267
_journal_language                        English
loop_
 _publ_author_name
 _publ_author_address
'Pecharskii V.K.'
;
Lviv Ivan Franko National University
Department of Inorganic Chemistry
Lviv
Ukraine
;
'Gschneidner K.A. Jr.'
;
Iowa State Ames University of Science and Technology
Ames National Laboratory - Department of Materials Science and Engineering
Ames
U.S.A. Iowa
;
'Bodak O.I.'
;
Lviv Ivan Franko National University
Department of Inorganic Chemistry
Lviv
Ukraine
;
'Protsyk A.S.'
;
Lviv Ivan Franko National University
Department of Inorganic Chemistry
Lviv
Ukraine
;

# Standardized crystallographic data

_cell_length_a                           4.5442
_cell_length_b                           4.5442
_cell_length_c                           7.7108
_cell_angle_alpha                        90
_cell_angle_beta                         90
_cell_angle_gamma                        120
_cell_volume                             137.9
_cell_formula_units_Z                    2
_space_group_IT_number                   186
_space_group_name_H-M_alt                'P 63 m c'
loop_
 _space_group_symop_id
 _space_group_symop_operation_xyz
 1 'x, y, z'
 2 '-x+y, -x, z'
 3 '-x+y, y, z'
 4 '-x, -x+y, 1/2+z'
 5 '-x, -y, 1/2+z'
 6 '-y, -x, z'
 7 '-y, x-y, z'
 8 'x, x-y, z'
 9 'x-y, -y, 1/2+z'
 10 'x-y, x, 1/2+z'
 11 'y, -x+y, 1/2+z'
 12 'y, x, 1/2+z'
loop_
 _atom_type_symbol
 Ag
 Ge
 Ce
loop_
 _atom_site_label
 _atom_site_type_symbol
 _atom_site_symmetry_multiplicity
 _atom_site_Wyckoff_symbol
 _atom_site_fract_x
 _atom_site_fract_y
 _atom_site_fract_z
 _atom_site_occupancy
 Ag Ag 2 b 0.333333 0.666667 0.2552 1
 Ge Ge 2 b 0.333333 0.666667 0.7047 1
 Ce Ce 2 a 0 0 0.0 1


_exptl_crystal_colour                    ?
_exptl_crystal_density_meas              ?
_exptl_crystal_density_diffrn            7.72
_cell_measurement_temperature            293
_cell_measurement_radiation              'X-rays, Cu Ka'
_cell_measurement_reflns_used            ?
_diffrn_ambient_temperature              293
_diffrn_measurement_device               'automatic diffractometer'
_diffrn_measurement_device_type          Scintag
_diffrn_radiation_type                   'X-rays, Cu Ka'
_diffrn_reflns_number                    48
_diffrn_reflns_theta_min                 1
_diffrn_reflns_theta_max                 55
_pd_proc_2theta_range_min                2
_pd_proc_2theta_range_max                110
_exptl_absorpt_coefficient_mu            ?
_exptl_absorpt_correction_type           ?
_computing_structure_solution            'starting values from the literature'
_refine_ls_number_parameters             7
_refine_ls_number_reflns                 ?
_refine_ls_R_factor_gt                   0.052
_refine_ls_wR_factor_gt                  ?
_pd_proc_ls_proof_R_factor               ?
_pd_proc_ls_proof_wR_factor              ?
_refine_ls_R_I_factor                    ?

# Published diffraction lines

loop_
 _refln_index_h
 _refln_index_k
 _refln_index_l
 _refln_d_spacing
 _refln_intensity_meas
 0 1 0 39.4 47
 0 0 2 38.6 30
 0 1 1 35.1 79
 0 1 2 27.54 1000
 1 1 0 22.71 633
 0 1 3 21.52 70
 0 2 0 19.675 7
 1 1 2 19.575 24
 0 0 4 19.277 82
 0 2 1 19.064 13
 0 2 2 17.526 239
 0 1 4 17.313 34
 0 2 3 15.623 25
 1 2 0 14.877 8
 1 1 4 14.698 202
 1 2 1 14.603 15
 0 1 5 14.357 34
 1 2 2 13.877 232
 0 2 4 13.769 25
 0 3 0 13.118 94
 1 2 3 12.872 32
 0 1 6 12.217 54
 0 2 5 12.14 20
 1 2 4 11.776 18
 2 2 0 11.361 58
 0 3 4 10.846 69
 1 3 1 10.805 11
 0 2 6 10.76 40
 1 2 5 10.706 24
 0 1 7 10.606 12
 1 3 2 10.502 69
 1 3 3 10.047 12
 2 2 4 9.787 61
 1 2 6 9.725 39
 0 0 8 9.614 16
 0 4 2 9.533 35
 1 3 4 9.498 13

# End of data set 539235


