##############################################################################
#                                                                            #
# Ag-Cr-P-S        # AgCrP2S6                                      #  462205 #
#                                                                            #
##############################################################################
#                                                                            #
#                           Pearson's Crystal Data                           #
#      Crystal Structure Database for Inorganic Compounds (on DVD)           #
#                              Release 2017/18                               #
#                  Editors: Pierre Villars and Karin Cenzual                 #
#                                                                            #
#   Copyright (c) ASM International & Material Phases Data System (MPDS),    #
# Switzerland & National Institute for Materials Science (NIMS), Japan, 2017 #
#                   All rights reserved. Version 2017.08                     #
#                                                                            #
#   This copy of Pearson's Crystal Data is licensed to:                      #
#   University of Alberta, Chemistry Department, 1-5 Installations License         #
#                                                                            #
##############################################################################

data_462205
_audit_creation_date                     2017-12-01
_audit_creation_method
;
Pearson's Crystal Data browser
;
#_database_code_PCD                      462205

# Entry summary

_chemical_formula_structural             'Ag Cr P~2~ S~6~'
_chemical_formula_sum                    'Ag Cr P2 S6'
_chemical_name_mineral                   ?
_chemical_compound_source                ?
_chemical_name_structure_type            AgCrP~2~S~6~,mP20,13
_chemical_formula_weight                 414.2

# Bibliographic data

_publ_section_title
;
Ordre et d\'esordre de r\'epartition des cations m\'etalliques dans le nouveau syst\`eme Ag~1/2~Cr~1/2-x~Zn~x~PS~3~: Comportement verre de spin
;
_journal_coden_ASTM                      MRBUAC
_journal_name_full                       'Mater. Res. Bull.'
_journal_year                            1985
_journal_volume                          20
_journal_page_first                      947
_journal_page_last                       954
_journal_language                        French
loop_
 _publ_author_name
 _publ_author_address
'Leblanc A.'
;
Nantes University
Laboratoire de Chimie des Solides
Nantes
France
;
'Ouili Z.'
;
Nantes University
Laboratoire de Chimie des Solides
Nantes
France
;
'Colombet P.'
;
Nantes University
Laboratoire de Chimie des Solides
Nantes
France
;

# Standardized crystallographic data

_cell_length_a                           6.755
_cell_length_b                           12.632
_cell_length_c                           5.892
_cell_angle_alpha                        90
_cell_angle_beta                         105.82
_cell_angle_gamma                        90
_cell_volume                             483.7
_cell_formula_units_Z                    2
_space_group_IT_number                   13
_space_group_name_H-M_alt                'P 1 2/c 1'
loop_
 _space_group_symop_id
 _space_group_symop_operation_xyz
 1 'x, y, z'
 2 '-x, -y, -z'
 3 '-x, y, 1/2-z'
 4 'x, -y, 1/2+z'

# Atomic positions taken from type-defining entry

loop_
 _atom_type_symbol
 S
 P
 Cr
 Ag
loop_
 _atom_site_label
 _atom_site_type_symbol
 _atom_site_symmetry_multiplicity
 _atom_site_Wyckoff_symbol
 _atom_site_fract_x
 _atom_site_fract_y
 _atom_site_fract_z
 _atom_site_occupancy
 S1 S 4 g 0.2131 0.6053 0.0172 1
 S2 S 4 g 0.2606 0.2288 0.0145 1
 S3 S 4 g 0.2716 0.0766 0.5079 1
 P1 P 4 g 0.3302 0.2453 0.702 1
 Cr1 Cr 2 f 0.5 0.0789 0.25 1
 Ag1 Ag 2 f 0.5 0.4369 0.25 1


_exptl_crystal_colour                    ?
_exptl_crystal_density_meas              ?
_exptl_crystal_density_diffrn            2.84
_cell_measurement_temperature            ?
_cell_measurement_radiation              'X-rays, Cu Ka'
_cell_measurement_reflns_used            ?
_diffrn_ambient_temperature              ?
_diffrn_measurement_device               'Guinier film'
_diffrn_measurement_device_type          ?
_diffrn_radiation_type                   ?
_diffrn_reflns_number                    ?
_exptl_absorpt_coefficient_mu            ?
_exptl_absorpt_correction_type           ?
_computing_structure_solution            ?
_refine_ls_number_parameters             ?
_refine_ls_number_reflns                 ?
_refine_ls_R_factor_gt                   ?
_refine_ls_wR_factor_gt                  ?

# End of data set 462205


