##############################################################################
#                                                                            #
# Ag-Fe-O          # AgFeO2 ht                                     # 1000174 #
#                                                                            #
##############################################################################
#                                                                            #
#                           Pearson's Crystal Data                           #
#      Crystal Structure Database for Inorganic Compounds (on DVD)           #
#                              Release 2017/18                               #
#                  Editors: Pierre Villars and Karin Cenzual                 #
#                                                                            #
#   Copyright (c) ASM International & Material Phases Data System (MPDS),    #
# Switzerland & National Institute for Materials Science (NIMS), Japan, 2017 #
#                   All rights reserved. Version 2017.08                     #
#                                                                            #
#   This copy of Pearson's Crystal Data is licensed to:                      #
#   University of Alberta, Chemistry Department, 1-5 Installations License         #
#                                                                            #
##############################################################################

data_1000174
_audit_creation_date                     2017-12-04
_audit_creation_method
;
Pearson's Crystal Data browser
;
#_database_code_PCD                      1000174

# Entry summary

_chemical_formula_structural             'Ag Fe O~2~'
_chemical_formula_sum                    'Ag Fe O2'
_chemical_name_mineral                   ?
_chemical_compound_source                ?
_chemical_name_structure_type            AgFeO~2~,hP8,194
_chemical_formula_weight                 195.7

# Bibliographic data

_publ_section_title
'The crystal structure of a new hexagonal phase of AgFeO~2~'                  
_journal_coden_ASTM                      ACBCAR
_journal_name_full                       'Acta Crystallogr. B'
_journal_year                            1972
_journal_volume                          28
_journal_page_first                      1774
_journal_page_last                       1777
_journal_language                        English
loop_
 _publ_author_name
 _publ_author_address
'Okamoto S.'
;
National Institute of Physical and Chemical Research (RIKEN)
Wako / Saitama
Japan
;
'Okamoto S.I.'
;
National Institute of Physical and Chemical Research (RIKEN)
Wako / Saitama
Japan
;
'Ito T.'
;
National Institute of Physical and Chemical Research (RIKEN)
Wako / Saitama
Japan
;

# Standardized crystallographic data

_cell_length_a                           3.039
_cell_length_b                           3.039
_cell_length_c                           12.395
_cell_angle_alpha                        90
_cell_angle_beta                         90
_cell_angle_gamma                        120
_cell_volume                             99.1
_cell_formula_units_Z                    2
_space_group_IT_number                   194
_space_group_name_H-M_alt                'P 63/m m c'
loop_
 _space_group_symop_id
 _space_group_symop_operation_xyz
 1 'x, y, z'
 2 '-x+y, -x, 1/2-z'
 3 '-x+y, -x, z'
 4 '-x+y, y, 1/2-z'
 5 '-x+y, y, z'
 6 '-x, -x+y, -z'
 7 '-x, -x+y, 1/2+z'
 8 '-x, -y, -z'
 9 '-x, -y, 1/2+z'
 10 '-y, -x, 1/2-z'
 11 '-y, -x, z'
 12 '-y, x-y, 1/2-z'
 13 '-y, x-y, z'
 14 'x, x-y, 1/2-z'
 15 'x, x-y, z'
 16 'x, y, 1/2-z'
 17 'x-y, -y, -z'
 18 'x-y, -y, 1/2+z'
 19 'x-y, x, -z'
 20 'x-y, x, 1/2+z'
 21 'y, -x+y, -z'
 22 'y, -x+y, 1/2+z'
 23 'y, x, -z'
 24 'y, x, 1/2+z'
loop_
 _atom_type_symbol
 O
 Ag
 Fe
loop_
 _atom_site_label
 _atom_site_type_symbol
 _atom_site_symmetry_multiplicity
 _atom_site_Wyckoff_symbol
 _atom_site_fract_x
 _atom_site_fract_y
 _atom_site_fract_z
 _atom_site_occupancy
 O O 4 f 0.333333 0.666667 0.0833 1
 Ag Ag 2 c 0.333333 0.666667 0.25 1
 Fe Fe 2 a 0 0 0 1


_exptl_crystal_colour
'red ruby, in transmitted light for thin platelets ruby red'                  
_exptl_crystal_density_meas              6.37
_exptl_crystal_density_diffrn            6.56
_cell_measurement_temperature            ?
_cell_measurement_radiation              'X-rays, Cu Ka1'
_cell_measurement_wavelength             1.54051
_cell_measurement_reflns_used            8
_diffrn_ambient_temperature              ?
_diffrn_measurement_device               'automatic diffractometer'
_diffrn_measurement_device_type          ?
_diffrn_radiation_type                   'X-rays, Mo Ka'
_diffrn_reflns_number                    ?
_exptl_absorpt_coefficient_mu            ?
_exptl_absorpt_correction_type           no
_computing_structure_solution
'crystal chemical considerations, Fourier synthesis'                          
_refine_ls_number_parameters             ?
_refine_ls_number_reflns                 ?
_refine_ls_R_factor_gt                   0.063
_refine_ls_wR_factor_gt                  ?

# Published diffraction lines

loop_
 _refln_index_h
 _refln_index_k
 _refln_index_l
 _refln_d_spacing
 _refln_intensity_meas
 0 0 2 62 30
 0 0 4 31 100
 1 0 1 25.74 45
 1 0 2 24.23 25
 1 0 3 22.19 14
 0 0 6 20.66 14
 1 0 5 18.05 20
 1 0 6 16.25 16
 0 0 8 15.49 16
 1 1 0 15.2 14
 1 1 2 14.75 4
 1 0 7 14.69 12
 1 1 4 13.64 12
 2 0 1 13.09 4
 1 1 6 12.24 2
 1 0 9 12.2 2
 2 0 5 11.62 2
 1 0 10 11.21 6
 2 0 6 11.16 2
 1 1 8 10.85 12
 2 0 7 10.56 2
 1 0 11 10.36 10
 0 0 12 10.33 16

# End of data set 1000174


