##############################################################################
#                                                                            #
# Ag-Gd-S          # AgGdS2                                        #  542864 #
#                                                                            #
##############################################################################
#                                                                            #
#                           Pearson's Crystal Data                           #
#      Crystal Structure Database for Inorganic Compounds (on DVD)           #
#                              Release 2017/18                               #
#                  Editors: Pierre Villars and Karin Cenzual                 #
#                                                                            #
#   Copyright (c) ASM International & Material Phases Data System (MPDS),    #
# Switzerland & National Institute for Materials Science (NIMS), Japan, 2017 #
#                   All rights reserved. Version 2017.08                     #
#                                                                            #
#   This copy of Pearson's Crystal Data is licensed to:                      #
#   University of Alberta, Chemistry Department, 1-5 Installations License         #
#                                                                            #
##############################################################################

data_542864
_audit_creation_date                     2017-12-04
_audit_creation_method
;
Pearson's Crystal Data browser
;
#_database_code_PCD                      542864

# Entry summary

_chemical_formula_structural             'Ag Gd S~2~'
_chemical_formula_sum                    'Ag Gd S2'
_chemical_name_mineral                   ?
_chemical_compound_source                ?
_chemical_name_structure_type            AgGdS~2~,mP32,4
_chemical_formula_weight                 329.2

# Bibliographic data

_publ_section_title
'Syntheses and structures of AgLnS~2~ (Ln= Sm-Yb) compounds'                  
_journal_coden_ASTM                      JALCEU
_journal_name_full                       'J. Alloys Compd.'
_journal_year                            1992
_journal_volume                          178
_journal_page_first                      57
_journal_page_last                       70
_journal_language                        English
loop_
 _publ_author_name
 _publ_author_address
'Lee A.'
;
Groningen National University
Laboratorium voor Anorganische Chemie
Groningen
Netherlands
;
'Belt R.'
;
Groningen National University
Laboratorium voor Anorganische Chemie
Groningen
Netherlands
;
'Wiegers G.A.'
;
Groningen National University
Laboratorium voor Anorganische Chemie
Groningen
Netherlands
;

# Standardized crystallographic data

_cell_length_a                           7.718
_cell_length_b                           7.718
_cell_length_c                           12.166
_cell_angle_alpha                        90
_cell_angle_beta                         90.31
_cell_angle_gamma                        90
_cell_volume                             724.7
_cell_formula_units_Z                    8
_space_group_IT_number                   4
_space_group_name_H-M_alt                'P 1 21 1'
loop_
 _space_group_symop_id
 _space_group_symop_operation_xyz
 1 'x, y, z'
 2 '-x, 1/2+y, -z'
loop_
 _atom_type_symbol
 Gd
 Ag
 S
loop_
 _atom_site_label
 _atom_site_type_symbol
 _atom_site_symmetry_multiplicity
 _atom_site_Wyckoff_symbol
 _atom_site_fract_x
 _atom_site_fract_y
 _atom_site_fract_z
 _atom_site_occupancy
 Gd3 Gd 2 a 0.0016 0.2845 0.75314 1
 Ag1 Ag 2 a 0.004 0.2809 0.279 1
 S2 S 2 a 0.0099 0.7869 0.0181 1
 S8 S 2 a 0.0231 0.3029 0.5279 1
 S4 S 2 a 0.2251 0.0499 0.2747 1
 S3 S 2 a 0.2267 0.0069 0.7304 1
 Gd1 Gd 2 a 0.2472 0.0319 0.5013 1
 Ag4 Ag 2 a 0.2479 0.0339 0.014 1
 Ag3 Ag 2 a 0.252 0.5289 0.517 1
 Gd4 Gd 2 a 0.2538 0.532 0.00281 1
 S5 S 2 a 0.2705 0.5529 0.2325 1
 S1 S 2 a 0.483 0.2609 0.0287 1
 Gd2 Gd 2 a 0.4997 0.2805 0.2533 1
 Ag2 Ag 2 a 0.5 0.7799 0.2053 1
 S7 S 2 a 0.5244 0.2539 0.4813 1
 S6 S 2 a 0.7213 0.0 0.2218 1


_exptl_crystal_colour                    ?
_exptl_crystal_density_meas              5.9(3)
_exptl_crystal_density_diffrn            6.04
_cell_measurement_temperature            295
_cell_measurement_radiation              'X-rays, Cu Ka1'
_cell_measurement_wavelength             1.5405
_pd_proc_wavelength                      1.5405
_cell_measurement_reflns_used            22
_diffrn_ambient_temperature              295
_diffrn_measurement_device               'automatic diffractometer'
_diffrn_measurement_device_type          'Enraf-Nonius CAD4'
_diffrn_radiation_type                   'X-rays, Mo Ka'
_diffrn_reflns_number                    9577
_diffrn_reflns_theta_min                 1.7
_diffrn_reflns_theta_max                 40
_exptl_absorpt_coefficient_mu            24.45
_exptl_absorpt_correction_type           yes
_computing_structure_solution            'direct methods'
_refine_ls_number_parameters             105
_refine_ls_number_reflns                 ?
_refine_ls_R_factor_gt                   0.122
_refine_ls_wR_factor_gt                  0.098

# End of data set 542864


