##############################################################################
#                                                                            #
# Ag-I             # AgI ht m                                      #  541254 #
#                                                                            #
##############################################################################
#                                                                            #
#                           Pearson's Crystal Data                           #
#      Crystal Structure Database for Inorganic Compounds (on DVD)           #
#                              Release 2017/18                               #
#                  Editors: Pierre Villars and Karin Cenzual                 #
#                                                                            #
#   Copyright (c) ASM International & Material Phases Data System (MPDS),    #
# Switzerland & National Institute for Materials Science (NIMS), Japan, 2017 #
#                   All rights reserved. Version 2017.08                     #
#                                                                            #
#   This copy of Pearson's Crystal Data is licensed to:                      #
#   University of Alberta, Chemistry Department, 1-5 Installations License         #
#                                                                            #
##############################################################################

data_541254
_audit_creation_date                     2017-12-04
_audit_creation_method
;
Pearson's Crystal Data browser
;
#_database_code_PCD                      541254

# Entry summary

_chemical_formula_structural             'Ag I'
_chemical_formula_sum                    'Ag I'
_chemical_name_mineral                   ?
_chemical_compound_source                ?
_chemical_name_structure_type            SiC,hP8,186
_chemical_formula_weight                 234.8

# Bibliographic data

_publ_section_title                      'The 4H Polytype of Silver Iodide'
_journal_coden_ASTM                      ACBCAR
_journal_name_full                       'Acta Crystallogr. B'
_journal_year                            1975
_journal_volume                          31
_journal_page_first                      1482
_journal_page_last                       1483
_journal_language                        English
loop_
 _publ_author_name
 _publ_author_address
'Johnson Q.C.'
;
California Livermore University
Lawrence Livermore Radiation Laboratory
Livermore
U.S.A. California
;
'Schock R.N.'
;
California Livermore University
Lawrence Livermore Radiation Laboratory
Livermore
U.S.A. California
;

# Standardized crystallographic data

_cell_length_a                           4.5979
_cell_length_b                           4.5979
_cell_length_c                           15.029
_cell_angle_alpha                        90
_cell_angle_beta                         90
_cell_angle_gamma                        120
_cell_volume                             275.16
_cell_formula_units_Z                    4
_space_group_IT_number                   186
_space_group_name_H-M_alt                'P 63 m c'
loop_
 _space_group_symop_id
 _space_group_symop_operation_xyz
 1 'x, y, z'
 2 '-x+y, -x, z'
 3 '-x+y, y, z'
 4 '-x, -x+y, 1/2+z'
 5 '-x, -y, 1/2+z'
 6 '-y, -x, z'
 7 '-y, x-y, z'
 8 'x, x-y, z'
 9 'x-y, -y, 1/2+z'
 10 'x-y, x, 1/2+z'
 11 'y, -x+y, 1/2+z'
 12 'y, x, 1/2+z'
loop_
 _atom_type_symbol
 Ag
 I
loop_
 _atom_site_label
 _atom_site_type_symbol
 _atom_site_symmetry_multiplicity
 _atom_site_Wyckoff_symbol
 _atom_site_fract_x
 _atom_site_fract_y
 _atom_site_fract_z
 _atom_site_occupancy
 Ag(2) Ag 2 b 0.333333 0.666667 0.25 1
 I(2) I 2 b 0.333333 0.666667 0.4384 1
 Ag(1) Ag 2 a 0 0 0.0 1
 I(1) I 2 a 0 0 0.1884 1


_exptl_crystal_colour                    ?
_exptl_crystal_density_meas              ?
_exptl_crystal_density_diffrn            5.67
_cell_measurement_temperature            ?
_cell_measurement_radiation              'X-rays, Mo Ka'
_cell_measurement_wavelength             0.7107
_cell_measurement_reflns_used            ?
_diffrn_ambient_temperature              ?
_diffrn_measurement_device               'Weissenberg photographs'
_diffrn_measurement_device_type          ?
_diffrn_radiation_type                   'X-rays, Mo Ka'
_diffrn_radiation_wavelength             0.7107
_diffrn_reflns_number                    ?
_exptl_absorpt_coefficient_mu            18.1
_exptl_absorpt_correction_type           no
_computing_structure_solution            'crystal chemical considerations'
_refine_ls_number_parameters             ?
_refine_ls_number_reflns                 ?
_refine_ls_R_factor_gt                   0.024
_refine_ls_wR_factor_gt                  ?

# End of data set 541254


