##############################################################################
#                                                                            #
# Ag-I             # AgI rt                                        #  541918 #
#                                                                            #
##############################################################################
#                                                                            #
#                           Pearson's Crystal Data                           #
#      Crystal Structure Database for Inorganic Compounds (on DVD)           #
#                              Release 2017/18                               #
#                  Editors: Pierre Villars and Karin Cenzual                 #
#                                                                            #
#   Copyright (c) ASM International & Material Phases Data System (MPDS),    #
# Switzerland & National Institute for Materials Science (NIMS), Japan, 2017 #
#                   All rights reserved. Version 2017.08                     #
#                                                                            #
#   This copy of Pearson's Crystal Data is licensed to:                      #
#   University of Alberta, Chemistry Department, 1-5 Installations License         #
#                                                                            #
##############################################################################

data_541918
_audit_creation_date                     2017-12-04
_audit_creation_method
;
Pearson's Crystal Data browser
;
#_database_code_PCD                      541918

# Entry summary

_chemical_formula_structural             'Ag I'
_chemical_formula_sum                    'Ag I'
_chemical_name_mineral                   iodargyrite
_chemical_compound_source                ?
_chemical_name_structure_type            ZnO,hP4,186
_chemical_formula_weight                 234.8

# Bibliographic data

_publ_section_title
'Single-crystal neutron-diffraction study of AgI between 23 and 300 \%C'      
_journal_coden_ASTM                      SSCOA4
_journal_name_full                       'Solid State Commun.'
_journal_year                            1977
_journal_volume                          24
_journal_page_first                      411
_journal_page_last                       416
_journal_language                        English
loop_
 _publ_author_name
 _publ_author_address
'Cava R.J.'
;
Massachusetts Institute of Technology (MIT)
Department of Materials Science and Engineering
Cambridge
U.S.A. Massachusetts
;
'Reidinger F.'
;
Brookhaven National Laboratory
Department of Chemistry
Upton
U.S.A. New York
;
'Wuensch B.J.'
;
Massachusetts Institute of Technology (MIT)
Department of Materials Science and Engineering
Cambridge
U.S.A. Massachusetts
;

# Standardized crystallographic data

_cell_length_a                           4.599
_cell_length_b                           4.599
_cell_length_c                           7.52
_cell_angle_alpha                        90
_cell_angle_beta                         90
_cell_angle_gamma                        120
_cell_volume                             137.74
_cell_formula_units_Z                    2
_space_group_IT_number                   186
_space_group_name_H-M_alt                'P 63 m c'
loop_
 _space_group_symop_id
 _space_group_symop_operation_xyz
 1 'x, y, z'
 2 '-x+y, -x, z'
 3 '-x+y, y, z'
 4 '-x, -x+y, 1/2+z'
 5 '-x, -y, 1/2+z'
 6 '-y, -x, z'
 7 '-y, x-y, z'
 8 'x, x-y, z'
 9 'x-y, -y, 1/2+z'
 10 'x-y, x, 1/2+z'
 11 'y, -x+y, 1/2+z'
 12 'y, x, 1/2+z'
loop_
 _atom_type_symbol
 Ag
 I
loop_
 _atom_site_label
 _atom_site_type_symbol
 _atom_site_symmetry_multiplicity
 _atom_site_Wyckoff_symbol
 _atom_site_fract_x
 _atom_site_fract_y
 _atom_site_fract_z
 _atom_site_occupancy
 Ag Ag 2 b 0.333333 0.666667 0.0 1
 I I 2 b 0.333333 0.666667 0.372 1


_exptl_crystal_colour                    ?
_exptl_crystal_density_meas              ?
_exptl_crystal_density_diffrn            5.66
_cell_measurement_temperature            296
_cell_measurement_radiation              neutrons
_cell_measurement_wavelength             1.1598
_cell_measurement_reflns_used            ?
_diffrn_ambient_temperature              296
_diffrn_measurement_device               'automatic diffractometer'
_diffrn_measurement_device_type
'U.S.A. New York, Brookhaven National Laboratory, HFBR, H6M'                  
_diffrn_radiation_type                   neutrons
_diffrn_radiation_wavelength             1.1598
_diffrn_reflns_number                    ?
_exptl_absorpt_coefficient_mu            ?
_exptl_absorpt_correction_type           yes
_computing_structure_solution            'starting values from the literature'
_refine_ls_number_parameters             ?
_refine_ls_number_reflns                 75
_refine_ls_R_factor_gt                   0.065
_refine_ls_wR_factor_gt                  ?

# End of data set 541918


