##############################################################################
#                                                                            #
# Ag-Ge-La         # AgLaGe                                        #  539236 #
#                                                                            #
##############################################################################
#                                                                            #
#                           Pearson's Crystal Data                           #
#      Crystal Structure Database for Inorganic Compounds (on DVD)           #
#                              Release 2017/18                               #
#                  Editors: Pierre Villars and Karin Cenzual                 #
#                                                                            #
#   Copyright (c) ASM International & Material Phases Data System (MPDS),    #
# Switzerland & National Institute for Materials Science (NIMS), Japan, 2017 #
#                   All rights reserved. Version 2017.08                     #
#                                                                            #
#   This copy of Pearson's Crystal Data is licensed to:                      #
#   University of Alberta, Chemistry Department, 1-5 Installations License         #
#                                                                            #
##############################################################################

data_539236
_audit_creation_date                     2017-12-04
_audit_creation_method
;
Pearson's Crystal Data browser
;
#_database_code_PCD                      539236

# Entry summary

_chemical_formula_structural             'Ag La Ge'
_chemical_formula_sum                    'Ag Ge La'
_chemical_name_mineral                   ?
_chemical_compound_source                ?
_chemical_name_structure_type            NdPtSb,hP6,186
_chemical_formula_weight                 319.4

# Bibliographic data

_publ_section_title
;
The crystal structure, heat capacity (1.5-80 K) and magnetic susceptibility (1.6-300 K) of LaAgGe and CeAgGe
;
_journal_coden_ASTM                      JCOMAH
_journal_name_full                       'J. Less-Common Met.'
_journal_year                            1991
_journal_volume                          168
_journal_page_first                      257
_journal_page_last                       267
_journal_language                        English
loop_
 _publ_author_name
 _publ_author_address
'Pecharskii V.K.'
;
Lviv Ivan Franko National University
Department of Inorganic Chemistry
Lviv
Ukraine
;
'Gschneidner K.A. Jr.'
;
Iowa State Ames University of Science and Technology
Ames National Laboratory - Department of Materials Science and Engineering
Ames
U.S.A. Iowa
;
'Bodak O.I.'
;
Lviv Ivan Franko National University
Department of Inorganic Chemistry
Lviv
Ukraine
;
'Protsyk A.S.'
;
Lviv Ivan Franko National University
Department of Inorganic Chemistry
Lviv
Ukraine
;

# Standardized crystallographic data

_cell_length_a                           4.5587
_cell_length_b                           4.5587
_cell_length_c                           7.8969
_cell_angle_alpha                        90
_cell_angle_beta                         90
_cell_angle_gamma                        120
_cell_volume                             142.1
_cell_formula_units_Z                    2
_space_group_IT_number                   186
_space_group_name_H-M_alt                'P 63 m c'
loop_
 _space_group_symop_id
 _space_group_symop_operation_xyz
 1 'x, y, z'
 2 '-x+y, -x, z'
 3 '-x+y, y, z'
 4 '-x, -x+y, 1/2+z'
 5 '-x, -y, 1/2+z'
 6 '-y, -x, z'
 7 '-y, x-y, z'
 8 'x, x-y, z'
 9 'x-y, -y, 1/2+z'
 10 'x-y, x, 1/2+z'
 11 'y, -x+y, 1/2+z'
 12 'y, x, 1/2+z'
loop_
 _atom_type_symbol
 Ag
 Ge
 La
loop_
 _atom_site_label
 _atom_site_type_symbol
 _atom_site_symmetry_multiplicity
 _atom_site_Wyckoff_symbol
 _atom_site_fract_x
 _atom_site_fract_y
 _atom_site_fract_z
 _atom_site_occupancy
 Ag Ag 2 b 0.333333 0.666667 0.2514 1
 Ge Ge 2 b 0.333333 0.666667 0.7082 1
 La La 2 a 0 0 0.0 1


_exptl_crystal_colour                    ?
_exptl_crystal_density_meas              ?
_exptl_crystal_density_diffrn            7.46
_cell_measurement_temperature            293
_cell_measurement_radiation              'X-rays, Cu Ka'
_cell_measurement_reflns_used            ?
_diffrn_ambient_temperature              293
_diffrn_measurement_device               'automatic diffractometer'
_diffrn_measurement_device_type          Scintag
_diffrn_radiation_type                   'X-rays, Cu Ka'
_diffrn_reflns_number                    49
_diffrn_reflns_theta_min                 1
_diffrn_reflns_theta_max                 55
_pd_proc_2theta_range_min                2
_pd_proc_2theta_range_max                110
_exptl_absorpt_coefficient_mu            ?
_exptl_absorpt_correction_type           ?
_computing_structure_solution            'starting values from the literature'
_refine_ls_number_parameters             7
_refine_ls_number_reflns                 ?
_refine_ls_R_factor_gt                   0.032
_refine_ls_wR_factor_gt                  ?
_pd_proc_ls_proof_R_factor               ?
_pd_proc_ls_proof_wR_factor              ?
_refine_ls_R_I_factor                    ?

# Published diffraction lines

loop_
 _refln_index_h
 _refln_index_k
 _refln_index_l
 _refln_d_spacing
 _refln_intensity_meas
 0 0 2 39.4 85
 0 1 1 35.4 78
 0 1 2 27.92 1000
 1 1 0 22.8 612
 0 1 3 21.88 56
 0 0 4 19.742 128
 0 2 1 19.154 21
 0 1 4 17.657 286
 0 2 3 15.795 24
 1 1 4 14.923 224
 0 1 5 14.666 46
 0 2 4 13.957 241
 0 0 6 13.159 111
 1 2 3 12.982 16
 0 1 6 12.486 53
 0 2 5 12.335 16
 1 2 4 11.903 17
 1 1 6 11.397 62
 0 2 6 10.95 110
 0 1 7 10.848 29
 1 3 2 10.55 104
 0 0 8 9.87 130
 0 2 7 9.795 16
 0 1 8 9.575 53

# End of data set 539236


