##############################################################################
#                                                                            #
# Ag-Fe-Mo-O       # AgMo2FeO8 rt                                  #  376694 #
#                                                                            #
##############################################################################
#                                                                            #
#                           Pearson's Crystal Data                           #
#      Crystal Structure Database for Inorganic Compounds (on DVD)           #
#                              Release 2017/18                               #
#                  Editors: Pierre Villars and Karin Cenzual                 #
#                                                                            #
#   Copyright (c) ASM International & Material Phases Data System (MPDS),    #
# Switzerland & National Institute for Materials Science (NIMS), Japan, 2017 #
#                   All rights reserved. Version 2017.08                     #
#                                                                            #
#   This copy of Pearson's Crystal Data is licensed to:                      #
#   University of Alberta, Chemistry Department, 1-5 Installations License         #
#                                                                            #
##############################################################################

data_376694
_audit_creation_date                     2017-12-01
_audit_creation_method
;
Pearson's Crystal Data browser
;
#_database_code_PCD                      376694

# Entry summary

_chemical_formula_structural             'Ag Mo~2~ Fe O~8~'
_chemical_formula_sum                    'Ag Fe Mo2 O8'
_chemical_name_mineral                   ?
_chemical_compound_source                ?
_chemical_name_structure_type            NaW~2~InO~8~,mP24,13
_chemical_formula_weight                 483.6

# Bibliographic data

_publ_section_title
'The double molybdates AgR^3+^(MoO~4~)~2~ (R= Sc, Fe, Cr)'                    
_journal_coden_ASTM                      RJICAQ
_journal_name_full                       'Russ. J. Inorg. Chem.'
_journal_year                            1984
_journal_volume                          29
_journal_page_first                      1292
_journal_page_last                       1295
_journal_language                        English
loop_
 _publ_author_name
 _publ_author_address
'Klevtsov P.V.'
;
Russian Academy of Sciences
Nikolaev A.V. Institute of Inorganic Chemistry
Novosibirsk
Russia
;
'Perepelitsa A.P.'
;
Kiev Taras Shevchenko National University
Kiev Technological Institute for the Food Industry
Kiev
Ukraine
;

# Standardized crystallographic data

_cell_length_a                           10.09
_cell_length_b                           5.74
_cell_length_c                           4.92
_cell_angle_alpha                        90
_cell_angle_beta                         90.1
_cell_angle_gamma                        90
_cell_volume                             284.9
_cell_formula_units_Z                    2
_space_group_IT_number                   13
_space_group_name_H-M_alt                'P 1 2/c 1'
loop_
 _space_group_symop_id
 _space_group_symop_operation_xyz
 1 'x, y, z'
 2 '-x, -y, -z'
 3 '-x, y, 1/2-z'
 4 'x, -y, 1/2+z'

# Atomic positions taken from type-defining entry

loop_
 _atom_type_symbol
 O
 Mo
 Ag
 Fe
loop_
 _atom_site_label
 _atom_site_type_symbol
 _atom_site_symmetry_multiplicity
 _atom_site_Wyckoff_symbol
 _atom_site_fract_x
 _atom_site_fract_y
 _atom_site_fract_z
 _atom_site_occupancy
 O1 O 4 g 0.117 0.612 0.115 1
 O2 O 4 g 0.134 0.108 0.068 1
 Mo1 Mo 4 g 0.2436 0.1783 0.7459 1
 O3 O 4 g 0.325 0.09 0.452 1
 O4 O 4 g 0.356 0.622 0.359 1
 Ag1 Ag 2 f 0.5 0.395 0.25 1
 Fe1 Fe 2 e 0 0.3092 0.25 1


_exptl_crystal_colour                    ?
_exptl_crystal_density_meas              5.52
_exptl_crystal_density_diffrn            5.64
_cell_measurement_temperature            ?
_cell_measurement_radiation              'X-rays, Cu Ka'
_cell_measurement_reflns_used            ?
_diffrn_ambient_temperature              ?
_diffrn_measurement_device               'automatic diffractometer'
_diffrn_measurement_device_type          ?
_diffrn_radiation_type                   ?
_diffrn_reflns_number                    ?
_exptl_absorpt_coefficient_mu            ?
_exptl_absorpt_correction_type           ?
_computing_structure_solution            ?
_refine_ls_number_parameters             ?
_refine_ls_number_reflns                 ?
_refine_ls_R_factor_gt                   ?
_refine_ls_wR_factor_gt                  ?

# Published diffraction lines

loop_
 _refln_index_h
 _refln_index_k
 _refln_index_l
 _refln_d_spacing
 _refln_intensity_meas
 1 0 0 100.9 2
 2 0 0 50.5 1
 2 1 0 37.9 25
 1 1 -1 35.05 7
 3 0 0 33.56 6
 2 1 -1 30.06 100
 3 1 0 29.01 10
 0 2 0 28.71 20
 1 2 0 27.64 3
 4 0 0 25.22 25
 0 2 1 24.79 17
 0 0 2 24.64 15
 2 2 -1 22.29 8
 2 0 -2 22.13 5
 3 2 0 21.86 5
 2 1 -2 20.68 6
 3 2 -1 19.9 2
 3 0 -2 19.83 2
 4 2 0 18.96 20
 0 2 2 18.71 15
 2 3 0 17.9 20
 4 2 -1 17.71 35
 4 0 -2 17.63 40
 2 3 -1 16.84 10
 3 2 -2 16.34 2
 6 1 0 16.15 2
 5 2 1 15.64 4
 6 1 -1 15.34 20
 2 1 -3 15.06 20
 2 3 -2 14.49 12
 0 2 3 14.26 6
 5 3 0 13.87 2
 0 4 1 13.8 10
 6 1 -2 13.48 2

# End of data set 376694


