##############################################################################
#                                                                            #
# Ag-O             # AgO mon                                       #  541753 #
#                                                                            #
##############################################################################
#                                                                            #
#                           Pearson's Crystal Data                           #
#      Crystal Structure Database for Inorganic Compounds (on DVD)           #
#                              Release 2017/18                               #
#                  Editors: Pierre Villars and Karin Cenzual                 #
#                                                                            #
#   Copyright (c) ASM International & Material Phases Data System (MPDS),    #
# Switzerland & National Institute for Materials Science (NIMS), Japan, 2017 #
#                   All rights reserved. Version 2017.08                     #
#                                                                            #
#   This copy of Pearson's Crystal Data is licensed to:                      #
#   University of Alberta, Chemistry Department, 1-5 Installations License         #
#                                                                            #
##############################################################################

data_541753
_audit_creation_date                     2017-12-04
_audit_creation_method
;
Pearson's Crystal Data browser
;
#_database_code_PCD                      541753

# Entry summary

_chemical_formula_structural             'Ag O'
_chemical_formula_sum                    'Ag O'
_chemical_name_mineral                   ?
_chemical_compound_source                ?
_chemical_name_structure_type            AgO,mP8,14
_chemical_formula_weight                 123.9

# Bibliographic data

_publ_section_title
'Magnetic properties and crystalline structure of AgO'                        
_journal_coden_ASTM                      JINCAO
_journal_name_full                       'J. Inorg. Nucl. Chem.'
_journal_year                            1960
_journal_volume                          13
_journal_page_first                      28
_journal_page_last                       31
_journal_language                        English
loop_
 _publ_author_name
 _publ_author_address
'McMillan J.A.'
;
Argonne National Laboratory
Argonne
U.S.A. Illinois
;

# Standardized crystallographic data

_cell_length_a                           5.85
_cell_length_b                           3.48
_cell_length_c                           5.5
_cell_angle_alpha                        90
_cell_angle_beta                         107.5
_cell_angle_gamma                        90
_cell_volume                             106.79
_cell_formula_units_Z                    4
_space_group_IT_number                   14
_space_group_name_H-M_alt                'P 1 21/c 1'
loop_
 _space_group_symop_id
 _space_group_symop_operation_xyz
 1 'x, y, z'
 2 '-x, -y, -z'
 3 '-x, 1/2+y, 1/2-z'
 4 'x, 1/2-y, 1/2+z'
loop_
 _atom_type_symbol
 _atom_type_oxidation_number
 O ?
 Ag+ ?
 Ag3+ 3
loop_
 _atom_site_label
 _atom_site_type_symbol
 _atom_site_symmetry_multiplicity
 _atom_site_Wyckoff_symbol
 _atom_site_fract_x
 _atom_site_fract_y
 _atom_site_fract_z
 _atom_site_occupancy
 O O 4 e 0.25 0.25 0.25 1
 Ag(I) Ag+ 2 d 0.5 0 0.5 1
 Ag(III) Ag3+ 2 a 0 0 0 1


_exptl_crystal_colour                    ?
_exptl_crystal_density_meas              ?
_exptl_crystal_density_diffrn            7.70
_cell_measurement_temperature            ?
_cell_measurement_radiation              X-rays
_cell_measurement_reflns_used            ?
_diffrn_ambient_temperature              ?
_diffrn_measurement_device               'Debye-Scherrer film'
_diffrn_measurement_device_type          ?
_diffrn_radiation_type                   X-rays
_diffrn_reflns_number                    ?
_exptl_absorpt_coefficient_mu            ?
_exptl_absorpt_correction_type           ?
_computing_structure_solution            'crystal chemical considerations'
_refine_ls_number_parameters             ?
_refine_ls_number_reflns                 ?
_refine_ls_R_factor_gt                   ?
_refine_ls_wR_factor_gt                  ?
_pd_proc_ls_proof_R_factor               ?
_pd_proc_ls_proof_wR_factor              ?
_refine_ls_R_I_factor                    ?

# End of data set 541753


