##############################################################################
#                                                                            #
# Ag-P             # AgP2                                          #  534790 #
#                                                                            #
##############################################################################
#                                                                            #
#                           Pearson's Crystal Data                           #
#      Crystal Structure Database for Inorganic Compounds (on DVD)           #
#                              Release 2017/18                               #
#                  Editors: Pierre Villars and Karin Cenzual                 #
#                                                                            #
#   Copyright (c) ASM International & Material Phases Data System (MPDS),    #
# Switzerland & National Institute for Materials Science (NIMS), Japan, 2017 #
#                   All rights reserved. Version 2017.08                     #
#                                                                            #
#   This copy of Pearson's Crystal Data is licensed to:                      #
#   University of Alberta, Chemistry Department, 1-5 Installations License         #
#                                                                            #
##############################################################################

data_534790
_audit_creation_date                     2017-12-04
_audit_creation_method
;
Pearson's Crystal Data browser
;
#_database_code_PCD                      534790

# Entry summary

_chemical_formula_structural             'Ag P~2~'
_chemical_formula_sum                    'Ag P2'
_chemical_name_mineral                   ?
_chemical_compound_source                ?
_chemical_name_structure_type            CuP~2~,mP12,14
_chemical_formula_weight                 169.8

# Bibliographic data

_publ_section_title
;
Darstellung, Eigenschaften und Kristallstruktur von Cu~2~P~7~ und Strukturverfeinerungen von CuP~2~ und AgP~2~
;
_journal_coden_ASTM                      ZAACAB
_journal_name_full                       'Z. Anorg. Allg. Chem.'
_journal_year                            1982
_journal_volume                          491
_journal_page_first                      225
_journal_page_last                       236
_journal_language                        German
loop_
 _publ_author_name
 _publ_author_address
'M\"oller M.H.'
;
Dortmund Technical University
Fachbereich Chemie
Dortmund
Germany
;
'Jeitschko W.'
;
Dortmund Technical University
Fachbereich Chemie
Dortmund
Germany
;

# Standardized crystallographic data

_cell_length_a                           6.2167
_cell_length_b                           5.0587
_cell_length_c                           7.8059
_cell_angle_alpha                        90
_cell_angle_beta                         113.48
_cell_angle_gamma                        90
_cell_volume                             225.16
_cell_formula_units_Z                    4
_space_group_IT_number                   14
_space_group_name_H-M_alt                'P 1 21/c 1'
loop_
 _space_group_symop_id
 _space_group_symop_operation_xyz
 1 'x, y, z'
 2 '-x, -y, -z'
 3 '-x, 1/2+y, 1/2-z'
 4 'x, 1/2-y, 1/2+z'
loop_
 _atom_type_symbol
 P
 Ag
loop_
 _atom_site_label
 _atom_site_type_symbol
 _atom_site_symmetry_multiplicity
 _atom_site_Wyckoff_symbol
 _atom_site_fract_x
 _atom_site_fract_y
 _atom_site_fract_z
 _atom_site_occupancy
 P(2) P 4 e 0.0898 0.0953 0.4172 1
 Ag Ag 4 e 0.36321 0.04964 0.10329 1
 P(1) P 4 e 0.7771 0.2688 0.1989 1


_exptl_crystal_colour                    ?
_exptl_crystal_density_meas              ?
_exptl_crystal_density_diffrn            5.01
_cell_measurement_temperature            ?
_cell_measurement_radiation              'X-rays, Cu Ka1'
_cell_measurement_reflns_used            ?
_diffrn_ambient_temperature              ?
_diffrn_measurement_device               'automatic diffractometer'
_diffrn_measurement_device_type          ?
_diffrn_radiation_type                   X-rays
_diffrn_reflns_number                    2078
_exptl_absorpt_coefficient_mu            ?
_exptl_absorpt_correction_type           ?
_computing_structure_solution            'Patterson and Fourier synthesis'
_refine_ls_number_parameters             19
_refine_ls_number_reflns                 1425
_refine_ls_R_factor_gt                   0.040
_refine_ls_wR_factor_gt                  ?

# End of data set 534790


