##############################################################################
#                                                                            #
# Ag-S-Sb          # AgSbS2 rt                                     #  540009 #
#                                                                            #
##############################################################################
#                                                                            #
#                           Pearson's Crystal Data                           #
#      Crystal Structure Database for Inorganic Compounds (on DVD)           #
#                              Release 2017/18                               #
#                  Editors: Pierre Villars and Karin Cenzual                 #
#                                                                            #
#   Copyright (c) ASM International & Material Phases Data System (MPDS),    #
# Switzerland & National Institute for Materials Science (NIMS), Japan, 2017 #
#                   All rights reserved. Version 2017.08                     #
#                                                                            #
#   This copy of Pearson's Crystal Data is licensed to:                      #
#   University of Alberta, Chemistry Department, 1-5 Installations License         #
#                                                                            #
##############################################################################

data_540009
_audit_creation_date                     2017-12-04
_audit_creation_method
;
Pearson's Crystal Data browser
;
#_database_code_PCD                      540009

# Entry summary

_chemical_formula_structural             'Ag Sb S~2~'
_chemical_formula_sum                    'Ag S2 Sb'
_chemical_name_mineral                   miargyrite
_chemical_compound_source                ?
_chemical_name_structure_type            AgSbS~2~,mS32,9
_chemical_formula_weight                 293.7

# Bibliographic data

_publ_section_title                      'Phase transitions in \a-AgSbS~2~'
_journal_coden_ASTM                      INOMAF
_journal_name_full                       'Inorg. Mater.'
_journal_year                            1975
_journal_volume                          11
_journal_page_first                      1610
_journal_page_last                       1612
_journal_language                        English
loop_
 _publ_author_name
 _publ_author_address
'Viskov V.S.'
;
Russian Academy of Sciences
Kurnakov N.S. Institute of General and Inorganic Chemistry
Moscow
Russia
;
'Kovaleva I.S.'
;
Russian Academy of Sciences
Kurnakov N.S. Institute of General and Inorganic Chemistry
Moscow
Russia
;
'Tokbaeva K.A.'
;
Russian Academy of Sciences
Kurnakov N.S. Institute of General and Inorganic Chemistry
Moscow
Russia
;
'Antonova L.I.'
;
Russian Academy of Sciences
Kurnakov N.S. Institute of General and Inorganic Chemistry
Moscow
Russia
;

# Standardized crystallographic data

_cell_length_a                           13.213
_cell_length_b                           4.412
_cell_length_c                           12.773
_cell_angle_alpha                        90
_cell_angle_beta                         98.48
_cell_angle_gamma                        90
_cell_volume                             736.5
_cell_formula_units_Z                    8
_space_group_IT_number                   9
_space_group_name_H-M_alt                'C 1 c 1'
loop_
 _space_group_symop_id
 _space_group_symop_operation_xyz
 1 'x, y, z'
 2 'x, -y, 1/2+z'
 3 '1/2+x, 1/2+y, z'
 4 '1/2+x, 1/2-y, 1/2+z'

# Atomic positions taken from type-defining entry

loop_
 _atom_type_symbol
 Sb
 S
 Ag
loop_
 _atom_site_label
 _atom_site_type_symbol
 _atom_site_symmetry_multiplicity
 _atom_site_Wyckoff_symbol
 _atom_site_fract_x
 _atom_site_fract_y
 _atom_site_fract_z
 _atom_site_occupancy
 Sb1 Sb 4 a 0.0 0.0432 0.0 1
 S1 S 4 a 0.1027 0.1709 0.1734 1
 S2 S 4 a 0.1381 0.3399 0.455 1
 Ag1 Ag 4 a 0.2415 0.5 0.1293 1
 Ag2 Ag 4 a 0.2506 0.0173 0.3789 1
 S3 S 4 a 0.3576 0.6815 0.2865 1
 S4 S 4 a 0.3872 0.1246 0.0668 1
 Sb2 Sb 4 a 0.4901 0.0526 0.2445 1


_exptl_crystal_colour                    ?
_exptl_crystal_density_meas              ?
_exptl_crystal_density_diffrn            5.30
_cell_measurement_temperature            633
_cell_measurement_radiation              'X-rays, Cu Ka'
_cell_measurement_reflns_used            ?
_diffrn_ambient_temperature              ?
_diffrn_measurement_device               film
_diffrn_measurement_device_type          ?
_diffrn_radiation_type                   ?
_diffrn_reflns_number                    ?
_exptl_absorpt_coefficient_mu            ?
_exptl_absorpt_correction_type           ?
_computing_structure_solution            ?
_refine_ls_number_parameters             ?
_refine_ls_number_reflns                 ?
_refine_ls_R_factor_gt                   ?
_refine_ls_wR_factor_gt                  ?

# End of data set 540009


