##############################################################################
#                                                                            #
# Ag-P-Se-V        # AgVP2Se6                                      #  540494 #
#                                                                            #
##############################################################################
#                                                                            #
#                           Pearson's Crystal Data                           #
#      Crystal Structure Database for Inorganic Compounds (on DVD)           #
#                              Release 2017/18                               #
#                  Editors: Pierre Villars and Karin Cenzual                 #
#                                                                            #
#   Copyright (c) ASM International & Material Phases Data System (MPDS),    #
# Switzerland & National Institute for Materials Science (NIMS), Japan, 2017 #
#                   All rights reserved. Version 2017.08                     #
#                                                                            #
#   This copy of Pearson's Crystal Data is licensed to:                      #
#   University of Alberta, Chemistry Department, 1-5 Installations License         #
#                                                                            #
##############################################################################

data_540494
_audit_creation_date                     2017-12-04
_audit_creation_method
;
Pearson's Crystal Data browser
;
#_database_code_PCD                      540494

# Entry summary

_chemical_formula_structural             'Ag V P~2~ Se~6~'
_chemical_formula_sum                    'Ag P2 Se6 V'
_chemical_name_mineral                   ?
_chemical_compound_source                ?
_chemical_name_structure_type            AgVP~2~Se~6~,mS20,5
_chemical_formula_weight                 694.5

# Bibliographic data

_publ_section_title
;
Modification of the cationic ordering with respect to the chalcogen in the layered MM'P~2~X~6~ phases. Synthesis and structure of two-dimensional AgVP~2~Se~6~
;
_journal_coden_ASTM                      MRBUAC
_journal_name_full                       'Mater. Res. Bull.'
_journal_year                            1988
_journal_volume                          23
_journal_page_first                      1199
_journal_page_last                       1209
_journal_language                        English
loop_
 _publ_author_name
 _publ_author_address
'Ouvrard G.'
;
Nantes University
Laboratoire de Chimie des Solides
Nantes
France
;
'Brec R.'
;
Nantes University
Laboratoire de Chimie des Solides
Nantes
France
;

# Standardized crystallographic data

_cell_length_a                           6.3399
_cell_length_b                           11.02
_cell_length_c                           6.9819
_cell_angle_alpha                        90
_cell_angle_beta                         106.824
_cell_angle_gamma                        90
_cell_volume                             466.9
_cell_formula_units_Z                    2
_space_group_IT_number                   5
_space_group_name_H-M_alt                'C 1 2 1'
loop_
 _space_group_symop_id
 _space_group_symop_operation_xyz
 1 'x, y, z'
 2 '-x, y, -z'
 3 '1/2+x, 1/2+y, z'
 4 '1/2-x, 1/2+y, -z'
loop_
 _atom_type_symbol
 Se
 P
 Ag
 V
loop_
 _atom_site_label
 _atom_site_type_symbol
 _atom_site_symmetry_multiplicity
 _atom_site_Wyckoff_symbol
 _atom_site_fract_x
 _atom_site_fract_y
 _atom_site_fract_z
 _atom_site_occupancy
 Se1 Se 4 c 0.2169 0.4977 0.2598 1
 Se2 Se 4 c 0.2248 0.3287 0.7453 1
 Se3 Se 4 c 0.2469 0.1918 0.2516 1
 P P 4 c 0.5511 0.168 0.1646 1
 Ag Ag 2 a 0 0.0 0 1
 V V 2 a 0 0.341 0 1


_exptl_crystal_colour                    ?
_exptl_crystal_density_meas              ?
_exptl_crystal_density_diffrn            4.94
_cell_measurement_temperature            293
_cell_measurement_radiation              'X-rays, Cu Ka1'
_cell_measurement_reflns_used            ?
_diffrn_ambient_temperature              293
_diffrn_measurement_device               'automatic diffractometer'
_diffrn_measurement_device_type          ?
_diffrn_radiation_type                   'X-rays, Mo Ka'
_diffrn_reflns_number                    ?
_diffrn_reflns_theta_min                 2
_diffrn_reflns_theta_max                 35
_exptl_absorpt_coefficient_mu            26.39
_exptl_absorpt_correction_type           ?
_computing_structure_solution            'starting values from the literature'
_refine_ls_number_parameters             47
_refine_ls_number_reflns                 ?
_refine_ls_R_factor_gt                   0.058
_refine_ls_wR_factor_gt                  0.065

# Published diffraction lines

loop_
 _refln_index_h
 _refln_index_k
 _refln_index_l
 _refln_d_spacing
 _refln_intensity_meas
 0 0 1 66.7 46.3
 0 2 1 42.509 4.0
 1 1 1 37.248 6.7
 0 0 2 33.422 27.7
 1 1 -2 32.201 9.2
 2 0 -1 31.218 13.0
 2 0 0 30.345 10.3
 1 3 -1 30.215 21.0
 0 2 2 28.564 7.3
 0 4 0 27.56 3.5
 2 2 -1 27.186 6.1
 1 3 1 26.908 100
 2 0 -2 26.612 46.5
 1 1 2 25.524 4.4
 2 0 1 25.042 2.2
 1 3 -2 24.814 7.0
 2 2 1 22.784 1.5
 1 1 -3 22.702 3.3
 0 0 3 22.282 1.4
 2 4 -1 20.67 5.8
 2 4 0 20.378 3.9
 3 1 0 19.903 3.6
 1 3 -3 19.617 27.8
 1 1 3 18.901 1.5
 2 2 2 18.629 1.5
 2 4 1 18.525 0.8
 1 5 -2 18.441 1.8
 3 3 -1 18.319 29.8
 3 3 0 17.718 5.0
 3 3 -2 17.622 1.0
 3 1 -3 17.509 1.3
 1 3 3 17.02 8.6
 1 5 2 16.889 1.4
 0 0 4 16.713 9.7
 3 3 1 16.143 4.8
 2 2 -4 16.092 6.7
 0 2 4 15.984 7.0
 2 6 -1 15.834 2.6
 2 2 3 15.272 1.3
 4 0 0 15.173 6.4
 2 6 -2 15.119 12.1
 4 2 -2 15.037 0.8
 3 5 0 14.902 1.9
 2 6 1 14.806 0.6
 1 7 1 14.63 2.3
 1 5 3 14.477 1.4
 3 3 2 14.229 0.2
 0 6 3 14.174 2.6
 3 5 1 13.929 1.2
 3 5 -3 13.825 1.6
 4 2 1 13.523 1.8
 2 6 2 13.463 6.6
 2 2 -5 13.381 1.0
 4 0 -4 13.314 2.7
 2 0 4 13.114 1.5
 1 7 -3 13.024 4.5
 4 4 -3 12.947 1.5
 0 8 2 12.732 1.2
 3 7 -1 12.62 0.8
 3 5 -4 12.526 1.6
 3 3 3 12.415 8.8
 0 6 4 12.356 6.0
 3 3 -5 12.271 5.5

# End of data set 540494


