##############################################################################
#                                                                            #
# Ag-Bi-O-W        # AgW2BiO8 rt                                   #  306711 #
#                                                                            #
##############################################################################
#                                                                            #
#                           Pearson's Crystal Data                           #
#      Crystal Structure Database for Inorganic Compounds (on DVD)           #
#                              Release 2017/18                               #
#                  Editors: Pierre Villars and Karin Cenzual                 #
#                                                                            #
#   Copyright (c) ASM International & Material Phases Data System (MPDS),    #
# Switzerland & National Institute for Materials Science (NIMS), Japan, 2017 #
#                   All rights reserved. Version 2017.08                     #
#                                                                            #
#   This copy of Pearson's Crystal Data is licensed to:                      #
#   University of Alberta, Chemistry Department, 1-5 Installations License         #
#                                                                            #
##############################################################################

data_306711
_audit_creation_date                     2017-12-01
_audit_creation_method
;
Pearson's Crystal Data browser
;
#_database_code_PCD                      306711

# Entry summary

_chemical_formula_structural             'Ag W~2~ Bi O~8~'
_chemical_formula_sum                    'Ag Bi O8 W2'
_chemical_name_mineral                   ?
_chemical_compound_source                ?
_chemical_name_structure_type            KNdW~2~O~8~,mS48,12
_chemical_formula_weight                 812.5

# Bibliographic data

_publ_section_title
;
The Polymorphism of Double Molybdates and Tungstates of Bismuth with Silver and Thallium(I)
;
_journal_coden_ASTM                      RJICAQ
_journal_name_full                       'Russ. J. Inorg. Chem.'
_journal_year                            1983
_journal_volume                          28
_journal_page_first                      363
_journal_page_last                       366
_journal_language                        English
loop_
 _publ_author_name
 _publ_author_address
'Klevtsov P.V.'
;
Russian Academy of Sciences
Nikolaev A.V. Institute of Inorganic Chemistry
Novosibirsk
Russia
;
'Perepelitsa A.P.'
;
Russian Academy of Sciences
Nikolaev A.V. Institute of Inorganic Chemistry
Novosibirsk
Russia
;
'Klevtsova R.F.'
;
Russian Academy of Sciences
Nikolaev A.V. Institute of Inorganic Chemistry
Novosibirsk
Russia
;

# Standardized crystallographic data

_cell_length_a                           10.1292
_cell_length_b                           10.99
_cell_length_c                           7.27
_cell_angle_alpha                        90
_cell_angle_beta                         127.751
_cell_angle_gamma                        90
_cell_volume                             639.9
_cell_formula_units_Z                    4
_space_group_IT_number                   12
_space_group_name_H-M_alt                'C 1 2/m 1'
loop_
 _space_group_symop_id
 _space_group_symop_operation_xyz
 1 'x, y, z'
 2 '-x, -y, -z'
 3 '-x, y, -z'
 4 'x, -y, z'
 5 '1/2+x, 1/2+y, z'
 6 '1/2-x, 1/2-y, -z'
 7 '1/2-x, 1/2+y, -z'
 8 '1/2+x, 1/2-y, z'

# Atomic positions taken from type-defining entry

loop_
 _atom_type_symbol
 O
 Ag
 Bi
 W
loop_
 _atom_site_label
 _atom_site_type_symbol
 _atom_site_symmetry_multiplicity
 _atom_site_Wyckoff_symbol
 _atom_site_fract_x
 _atom_site_fract_y
 _atom_site_fract_z
 _atom_site_occupancy
 O1 O 8 j 0.047 0.258 0.357 1
 O2 O 8 j 0.168 0.122 0.063 1
 O3 O 8 j 0.28 0.377 0.263 1
 O4 O 4 i 0.012 0 0.341 1
 Ag1 Ag 4 i 0.311 0 0.473 1
 O5 O 4 i 0.425 0 0.112 1
 Bi1 Bi 4 i 0.7991 0 0.0552 1
 Bi2 Bi 4 h 0 0.1642 0.5 1
 W1 W 4 g 0 0.3048 0 1


_exptl_crystal_colour                    ?
_exptl_crystal_density_meas              ?
_exptl_crystal_density_diffrn            8.43
_cell_measurement_temperature            ?
_cell_measurement_radiation              'X-rays, Cu Ka'
_cell_measurement_reflns_used            ?
_diffrn_ambient_temperature              ?
_diffrn_measurement_device               'automatic diffractometer'
_diffrn_measurement_device_type          ?
_diffrn_radiation_type                   ?
_diffrn_reflns_number                    ?
_exptl_absorpt_coefficient_mu            ?
_exptl_absorpt_correction_type           ?
_computing_structure_solution            ?
_refine_ls_number_parameters             ?
_refine_ls_number_reflns                 ?
_refine_ls_R_factor_gt                   ?
_refine_ls_wR_factor_gt                  ?

# Published diffraction lines

loop_
 _refln_index_h
 _refln_index_k
 _refln_index_l
 _refln_d_spacing
 _refln_intensity_meas
 1 1 0 64.7 6
 0 1 1 60.3 8
 1 0 -1 57.4 2
 1 0 1 50.3 2
 2 0 0 40 7
 1 2 1 39.7 4
 1 2 1 37.12 22
 0 0 2 36.05 6
 2 2 0 32.36 100
 2 1 1 31.79 55
 0 2 2 30.14 65
 2 0 -2 28.77 40
 0 4 0 27.46 20
 2 3 -1 26.1 25
 1 3 -2 25.17 20
 1 4 -1 24.78 15
 1 4 1 24.07 5
 1 0 -3 23.97 4
 0 1 3 23.46 10
 2 2 2 22.84 2
 2 4 0 22.63 4
 1 0 3 22.22 2
 0 4 2 21.85 20
 1 5 0 21.19 3
 0 5 1 21.01 6
 4 0 0 20.03 25
 4 1 -1 19.67 20
 3 4 -1 18.89 9
 2 3 -3 18.82 10
 4 0 -2 18.58 6
 2 4 2 18.55 6
 2 5 1 18.32 25
 3 4 1 18.04 20
 4 2 -2 17.59 15
 2 3 3 17.21 30
 3 5 0 16.96 5
 2 6 0 16.62 25
 2 2 -4 16.55 20
 0 5 3 16.19 8
 5 0 -1 16.11 7
 3 2 3 16.04 7
 4 2 2 15.89 5
 5 1 0 15.86 6
 3 4 -3 15.69 7
 2 0 4 15.66 7
 5 2 -1 15.44 13
 4 4 -2 15.41 15
 4 3 -3 15.042 9
 3 5 2 14.844 6
 2 6 2 14.79 10
 5 3 0 14.675 6
 2 4 -4 14.647 6
 3 6 1 14.544 6
 4 0 -4 14.377 7
 4 1 3 14.331 8
 5 0 -3 14.214 3

# End of data set 306711


