##############################################################################
#                                                                            #
# Al-Cr-H-O        # Al2[CrO4]2[Cr2O7][H2O]4 mon                   #  383890 #
#                                                                            #
##############################################################################
#                                                                            #
#                           Pearson's Crystal Data                           #
#      Crystal Structure Database for Inorganic Compounds (on DVD)           #
#                              Release 2017/18                               #
#                  Editors: Pierre Villars and Karin Cenzual                 #
#                                                                            #
#   Copyright (c) ASM International & Material Phases Data System (MPDS),    #
# Switzerland & National Institute for Materials Science (NIMS), Japan, 2017 #
#                   All rights reserved. Version 2017.08                     #
#                                                                            #
#   This copy of Pearson's Crystal Data is licensed to:                      #
#   University of Alberta, Chemistry Department, 1-5 Installations License         #
#                                                                            #
##############################################################################

data_383890
_audit_creation_date                     2017-12-01
_audit_creation_method
;
Pearson's Crystal Data browser
;
#_database_code_PCD                      383890

# Entry summary

_chemical_formula_structural
'Al~2~ [Cr O~4~]~2~ [Cr~2~ O~7~] [H~2~ O]~4~'                                 
_chemical_formula_sum                    'Al2 Cr4 H8 O19'
_chemical_name_mineral                   ?
_chemical_compound_source                ?
_chemical_name_structure_type
Fe~2~[CrO~4~]~2~[Cr~2~O~7~][H~2~O]~4~,mP50,13                                 
_chemical_formula_weight                 574.0

# Bibliographic data

_publ_section_title
'Crystal structure of \a-Al~2~(CrO~4~)~2~Cr~2~O~7~.4H~2~O'                    
_journal_coden_ASTM                      JINCAO
_journal_name_full                       'J. Inorg. Nucl. Chem.'
_journal_year                            1977
_journal_volume                          39
_journal_page_first                      1711
_journal_page_last                       1713
_journal_language                        English
loop_
 _publ_author_name
 _publ_author_address
'Cudennec Y.'
;
Rennes National Institute of Applied Sciences
Laboratoire de Cristallochimie Min\'erale
Rennes
France
;

# Standardized crystallographic data

_cell_length_a                           5.329
_cell_length_b                           10.48
_cell_length_c                           14.3279
_cell_angle_alpha                        90
_cell_angle_beta                         111.835
_cell_angle_gamma                        90
_cell_volume                             742.78
_cell_formula_units_Z                    2
_space_group_IT_number                   13
_space_group_name_H-M_alt                'P 1 2/c 1'
loop_
 _space_group_symop_id
 _space_group_symop_operation_xyz
 1 'x, y, z'
 2 '-x, -y, -z'
 3 '-x, y, 1/2-z'
 4 'x, -y, 1/2+z'
loop_
 _atom_type_symbol
 OH2
 O
 Cr
 Al
loop_
 _atom_site_label
 _atom_site_type_symbol
 _atom_site_symmetry_multiplicity
 _atom_site_Wyckoff_symbol
 _atom_site_fract_x
 _atom_site_fract_y
 _atom_site_fract_z
 _atom_site_occupancy
 OW2 OH2 4 g 0.072 0.3407 0.13 1
 OW1 OH2 4 g 0.094 0.1158 0.607 1
 O2 O 4 g 0.2456 0.0874 0.454 1
 O6 O 4 g 0.247 0.7015 0.38 1
 O7 O 4 g 0.278 0.4683 0.312 1
 O4 O 4 g 0.26 0.2197 0.292 1
 O1 O 4 g 0.2714 0.1131 0.0758 1
 O8 O 4 g 0.292 0.5746 0.055 1
 O3 O 4 g 0.322 0.0315 0.808 1
 Cr1 Cr 4 g 0.3872 0.0953 0.3701 1
 Cr2 Cr 4 g 0.4278 0.6029 0.3481 1
 O5 O 2 f 0.5 0.6757 0.25 1
 Al2 Al 2 e 0 0.3459 0.25 1
 Al1 Al 2 a 0 0 0 1


_exptl_crystal_colour                    red
_exptl_crystal_density_meas              ?
_exptl_crystal_density_diffrn            2.57
_cell_measurement_temperature            ?
_cell_measurement_radiation              'X-rays, Mo Ka'
_cell_measurement_reflns_used            ?
_diffrn_ambient_temperature              ?
_diffrn_measurement_device               'automatic diffractometer'
_diffrn_measurement_device_type          Nonius
_diffrn_radiation_type                   'X-rays, Mo Ka'
_diffrn_reflns_number                    ?
_exptl_absorpt_coefficient_mu            ?
_exptl_absorpt_correction_type           ?
_computing_structure_solution            'starting values from the literature'
_refine_ls_number_parameters             ?
_refine_ls_number_reflns                 ?
_refine_ls_R_factor_gt                   0.082
_refine_ls_wR_factor_gt                  ?

# End of data set 383890


