##############################################################################
#                                                                            #
# Al-H-O-Si        # Al2Si2O5[OH]4 dic                             # 1503392 #
#                                                                            #
##############################################################################
#                                                                            #
#                           Pearson's Crystal Data                           #
#      Crystal Structure Database for Inorganic Compounds (on DVD)           #
#                              Release 2017/18                               #
#                  Editors: Pierre Villars and Karin Cenzual                 #
#                                                                            #
#   Copyright (c) ASM International & Material Phases Data System (MPDS),    #
# Switzerland & National Institute for Materials Science (NIMS), Japan, 2017 #
#                   All rights reserved. Version 2017.08                     #
#                                                                            #
#   This copy of Pearson's Crystal Data is licensed to:                      #
#   University of Alberta, Chemistry Department, 1-5 Installations License         #
#                                                                            #
##############################################################################

data_1503392
_audit_creation_date                     2017-12-05
_audit_creation_method
;
Pearson's Crystal Data browser
;
#_database_code_PCD                      1503392

# Entry summary

_chemical_formula_structural             'Al~2~ Si~2~ O~5~ [O H]~4~'
_chemical_formula_sum                    'Al2 H4 O9 Si2'
_chemical_name_mineral                   dickite
_chemical_compound_source
'U.S.A. Pennsylvania, Schuylkill, Pine Knot colliery'                         
_chemical_name_structure_type            Al~2~Si~2~O~5~[OH]~4~-a,mS52,9
_chemical_formula_weight                 258.2

# Bibliographic data

_publ_section_title
;
A refinement of the dickite structure and some remarks on polymorphism in kaolin minerals
;
_journal_coden_ASTM                      MIASA6
_journal_name_full                       'Mineral. Mag. J. Mineral. Soc.'
_journal_year                            1961
_journal_volume                          32
_journal_page_first                      683
_journal_page_last                       704
_journal_language                        English
loop_
 _publ_author_name
 _publ_author_address
'Newnham R.E.'
;
Massachusetts Institute of Technology (MIT)
Laboratory of Insulation Research
Cambridge
U.S.A. Massachusetts
;

# Standardized crystallographic data

_cell_length_a                           5.15
_cell_length_b                           8.94
_cell_length_c                           14.424
_cell_angle_alpha                        90
_cell_angle_beta                         96.73
_cell_angle_gamma                        90
_cell_volume                             659.5
_cell_formula_units_Z                    4
_space_group_IT_number                   9
_space_group_name_H-M_alt                'C 1 c 1'
loop_
 _space_group_symop_id
 _space_group_symop_operation_xyz
 1 'x, y, z'
 2 'x, -y, 1/2+z'
 3 '1/2+x, 1/2+y, z'
 4 '1/2+x, 1/2-y, 1/2+z'
loop_
 _atom_type_symbol
 Al
 O
 Si
 OH
loop_
 _atom_site_label
 _atom_site_type_symbol
 _atom_site_symmetry_multiplicity
 _atom_site_Wyckoff_symbol
 _atom_site_fract_x
 _atom_site_fract_y
 _atom_site_fract_z
 _atom_site_occupancy
 Al2 Al 4 a 0.0 0.083 0.0 1
 O1 O 4 a 0.0364 0.2373 0.2633 1
 Si2 Si 4 a 0.0812 0.0732 0.3096 1
 O5 O 4 a 0.092 0.0813 0.422 1
 Si1 Si 4 a 0.0927 0.4001 0.3099 1
 O4 O 4 a 0.1613 0.3876 0.4217 1
 OH2 OH 4 a 0.3249 0.2733 0.5642 1
 OH3 OH 4 a 0.3282 0.1051 0.0675 1
 O2 O 4 a 0.3397 0.4724 0.2636 1
 O3 O 4 a 0.3456 0.0105 0.2752 1
 OH4 OH 4 a 0.4138 0.4168 0.0657 1
 Al1 Al 4 a 0.4964 0.2466 0.0014 1
 OH1 OH 4 a 0.6628 0.2758 0.4268 1


_exptl_crystal_colour                    ?
_exptl_crystal_density_meas              ?
_exptl_crystal_density_diffrn            2.60
_cell_measurement_temperature            ?
_cell_measurement_radiation              'X-rays, Cu Ka1, Cu Ka2'
_cell_measurement_wavelength             1.54051
_cell_measurement_reflns_used            ?
_diffrn_ambient_temperature              ?
_diffrn_measurement_device               'Weissenberg photographs'
_diffrn_measurement_device_type          ?
_diffrn_radiation_type                   'X-rays, Mo Ka'
_diffrn_reflns_number                    420
_exptl_absorpt_coefficient_mu            ?
_exptl_absorpt_correction_type           no
_computing_structure_solution
'starting values from the literature, Fourier synthesis'                      
_refine_ls_number_parameters             ?
_refine_ls_number_reflns                 ?
_refine_ls_R_factor_gt                   ?
_refine_ls_wR_factor_gt                  ?

# End of data set 1503392


