##############################################################################
#                                                                            #
# Al-H-O-P         # Al[PO4][H2O]2 met                             # 1100141 #
#                                                                            #
##############################################################################
#                                                                            #
#                           Pearson's Crystal Data                           #
#      Crystal Structure Database for Inorganic Compounds (on DVD)           #
#                              Release 2017/18                               #
#                  Editors: Pierre Villars and Karin Cenzual                 #
#                                                                            #
#   Copyright (c) ASM International & Material Phases Data System (MPDS),    #
# Switzerland & National Institute for Materials Science (NIMS), Japan, 2017 #
#                   All rights reserved. Version 2017.08                     #
#                                                                            #
#   This copy of Pearson's Crystal Data is licensed to:                      #
#   University of Alberta, Chemistry Department, 1-5 Installations License         #
#                                                                            #
##############################################################################

data_1100141
_audit_creation_date                     2017-12-04
_audit_creation_method
;
Pearson's Crystal Data browser
;
#_database_code_PCD                      1100141

# Entry summary

_chemical_formula_structural             'Al [P O~4~] [H~2~ O]~2~'
_chemical_formula_sum                    'Al H4 O6 P'
_chemical_name_mineral                   metavariscite
_chemical_compound_source
'(U.S.A. Washington D.C., Smithsonian Institution)'                           
_chemical_name_structure_type            Al[PO~4~][H~2~O]~2~,mP32,14
_chemical_formula_weight                 158.0

# Bibliographic data

_publ_section_title
'Metavariscite - A Redetermination of its Crystal Structure'                  
_journal_coden_ASTM                      ACBCAR
_journal_name_full                       'Acta Crystallogr. B'
_journal_year                            1973
_journal_volume                          29
_journal_page_first                      2292
_journal_page_last                       2294
_journal_language                        English
loop_
 _publ_author_name
 _publ_author_address
'Kniep R.'
;
Braunschweig Technical University
Institut f\"ur Anorganische Chemie
Braunschweig
Germany
;
'Mootz D.'
;
Braunschweig Technical University
Institut f\"ur Anorganische Chemie
Braunschweig
Germany
;

# Standardized crystallographic data

_cell_length_a                           5.178
_cell_length_b                           9.514
_cell_length_c                           9.8867
_cell_angle_alpha                        90
_cell_angle_beta                         121.232
_cell_angle_gamma                        90
_cell_volume                             416.5
_cell_formula_units_Z                    4
_space_group_IT_number                   14
_space_group_name_H-M_alt                'P 1 21/c 1'
loop_
 _space_group_symop_id
 _space_group_symop_operation_xyz
 1 'x, y, z'
 2 '-x, -y, -z'
 3 '-x, 1/2+y, 1/2-z'
 4 'x, 1/2-y, 1/2+z'
loop_
 _atom_type_symbol
 Al
 O
 P
 H
loop_
 _atom_site_label
 _atom_site_type_symbol
 _atom_site_symmetry_multiplicity
 _atom_site_Wyckoff_symbol
 _atom_site_fract_x
 _atom_site_fract_y
 _atom_site_fract_z
 _atom_site_occupancy
 Al Al 4 e 0.09683 0.67455 0.19374 1
 O1 O 4 e 0.10531 0.32098 0.27036 1
 O2 O 4 e 0.11385 0.28323 0.02094 1
 O5 O 4 e 0.20585 0.05233 0.32202 1
 P P 4 e 0.27476 0.35312 0.18371 1
 O4 O 4 e 0.28685 0.51392 0.17227 1
 O3 O 4 e 0.59608 0.29561 0.28127 1
 O6 O 4 e 0.67493 0.13761 0.07903 1
 H1 H 4 e 0.149 0.53 0.788 1
 H2 H 4 e 0.368 0.068 0.331 1
 H4 H 4 e 0.484 0.131 0.023 1
 H3 H 4 e 0.749 0.166 0.023 1


_exptl_crystal_colour                    ?
_exptl_crystal_density_meas              2.54
_exptl_crystal_density_diffrn            2.52
_cell_measurement_temperature            ?
_cell_measurement_radiation              ?
_cell_measurement_reflns_used            ?
_diffrn_ambient_temperature              ?
_diffrn_measurement_device               'automatic diffractometer'
_diffrn_measurement_device_type          Siemens
_diffrn_radiation_type                   'X-rays, Mo Ka'
_diffrn_reflns_number                    ?
_exptl_absorpt_coefficient_mu            0.82
_exptl_absorpt_correction_type           no
_computing_structure_solution            'starting values from the literature'
_refine_ls_number_parameters             ?
_refine_ls_number_reflns                 1067
_refine_ls_R_factor_gt                   0.027
_refine_ls_wR_factor_gt                  ?

# End of data set 1100141


