##############################################################################
#                                                                            #
# Al-Bi-Cl         # AlBiCl6                                       # 1520771 #
#                                                                            #
##############################################################################
#                                                                            #
#                           Pearson's Crystal Data                           #
#      Crystal Structure Database for Inorganic Compounds (on DVD)           #
#                              Release 2017/18                               #
#                  Editors: Pierre Villars and Karin Cenzual                 #
#                                                                            #
#   Copyright (c) ASM International & Material Phases Data System (MPDS),    #
# Switzerland & National Institute for Materials Science (NIMS), Japan, 2017 #
#                   All rights reserved. Version 2017.08                     #
#                                                                            #
#   This copy of Pearson's Crystal Data is licensed to:                      #
#   University of Alberta, Chemistry Department, 1-5 Installations License         #
#                                                                            #
##############################################################################

data_1520771
_audit_creation_date                     2017-12-05
_audit_creation_method
;
Pearson's Crystal Data browser
;
#_database_code_PCD                      1520771

# Entry summary

_chemical_formula_structural             'Al Bi Cl~6~'
_chemical_formula_sum                    'Al Bi Cl6'
_chemical_name_mineral                   ?
_chemical_compound_source                ?
_chemical_name_structure_type            AlBiCl~6~,mP32,14
_chemical_formula_weight                 448.7

# Bibliographic data

_publ_section_title
;
The Lewis acid-base adducts of bismuth and aluminium trihalides - crystal structures of [Bi~2~X~4~][AlX~4~]~2~ (X= Cl, Br)
;
_journal_coden_ASTM                      ZEKRDZ
_journal_name_full                       'Z. Kristallogr.'
_journal_year                            2005
_journal_volume                          220
_journal_page_first                      147
_journal_page_last                       151
_journal_language                        English
loop_
 _publ_author_name
 _publ_author_address
'Beck J.'
;
Bonn Rheinich Friedrich Wilhelm University
Institut f\"ur Anorganische Chemie
Bonn
Germany
;
'Hengstmann M.'
;
Bonn Rheinich Friedrich Wilhelm University
Institut f\"ur Anorganische Chemie
Bonn
Germany
;
'Schl\"uter S.'
;
Bonn Rheinich Friedrich Wilhelm University
Institut f\"ur Anorganische Chemie
Bonn
Germany
;

# Standardized crystallographic data

_cell_length_a                           7.7322
_cell_length_b                           11.9565
_cell_length_c                           10.3535
_cell_angle_alpha                        90
_cell_angle_beta                         95.09
_cell_angle_gamma                        90
_cell_volume                             953.4
_cell_formula_units_Z                    4
_space_group_IT_number                   14
_space_group_name_H-M_alt                'P 1 21/c 1'
loop_
 _space_group_symop_id
 _space_group_symop_operation_xyz
 1 'x, y, z'
 2 '-x, -y, -z'
 3 '-x, 1/2+y, 1/2-z'
 4 'x, 1/2-y, 1/2+z'
loop_
 _atom_type_symbol
 Cl
 Bi
 Al
loop_
 _atom_site_label
 _atom_site_type_symbol
 _atom_site_symmetry_multiplicity
 _atom_site_Wyckoff_symbol
 _atom_site_fract_x
 _atom_site_fract_y
 _atom_site_fract_z
 _atom_site_occupancy
 Cl6 Cl 4 e 0.0102 0.0675 0.1914 1
 Cl(5) Cl 4 e 0.0128 0.36432 0.041 1
 Bi Bi 4 e 0.18926 0.53704 0.14839 1
 Cl(4) Cl 4 e 0.2525 0.78654 0.1649 1
 Cl(2) Cl 4 e 0.2924 0.33914 0.3186 1
 Cl(1) Cl 4 e 0.4761 0.09951 0.177 1
 Cl(3) Cl 4 e 0.5022 0.37077 0.04943 1
 Al Al 4 e 0.5037 0.27295 0.2213 1


_exptl_crystal_colour                    colorless
_exptl_crystal_density_meas              ?
_exptl_crystal_density_diffrn            3.13
_cell_measurement_temperature            293
_cell_measurement_radiation              'X-rays, Mo Ka'
_cell_measurement_reflns_used            ?
_diffrn_ambient_temperature              293
_diffrn_measurement_device               'automatic diffractometer'
_diffrn_measurement_device_type          'Bruker-Nonius KAPPA'
_diffrn_radiation_type                   'X-rays, Mo Ka'
_diffrn_reflns_number                    6584
_diffrn_reflns_theta_min                 2.61
_diffrn_reflns_theta_max                 27.59
_exptl_absorpt_coefficient_mu            20.18
_exptl_absorpt_correction_type           ?
_computing_structure_solution            'direct methods, Fourier synthesis'
_refine_ls_number_parameters             74
_refine_ls_number_reflns                 2161
_refine_ls_R_factor_gt                   0.042
_refine_ls_wR_factor_gt                  0.087

# End of data set 1520771


