##############################################################################
#                                                                            #
# Al-Br            # AlBr3                                         #  545032 #
#                                                                            #
##############################################################################
#                                                                            #
#                           Pearson's Crystal Data                           #
#      Crystal Structure Database for Inorganic Compounds (on DVD)           #
#                              Release 2017/18                               #
#                  Editors: Pierre Villars and Karin Cenzual                 #
#                                                                            #
#   Copyright (c) ASM International & Material Phases Data System (MPDS),    #
# Switzerland & National Institute for Materials Science (NIMS), Japan, 2017 #
#                   All rights reserved. Version 2017.08                     #
#                                                                            #
#   This copy of Pearson's Crystal Data is licensed to:                      #
#   University of Alberta, Chemistry Department, 1-5 Installations License         #
#                                                                            #
##############################################################################

data_545032
_audit_creation_date                     2017-12-04
_audit_creation_method
;
Pearson's Crystal Data browser
;
#_database_code_PCD                      545032

# Entry summary

_chemical_formula_structural             'Al Br~3~'
_chemical_formula_sum                    'Al Br3'
_chemical_name_mineral                   ?
_chemical_compound_source                ?
_chemical_name_structure_type            AlBr~3~,mP16,14
_chemical_formula_weight                 266.7
_chemical_melting_point                  370.7

# Bibliographic data

_publ_section_title
'The structure and certain properties of aluminium halides'                   
_journal_coden_ASTM                      RJICAQ
_journal_name_full                       'Russ. J. Inorg. Chem.'
_journal_year                            1964
_journal_volume                          9
_journal_page_first                      718
_journal_page_last                       722
_journal_language                        English
loop_
 _publ_author_name
 _publ_author_address
'Semenenko K.N.'
;
Moscow M.V. Lomonosov State University
Moscow
Russia
;
'Naumova T.N.'

# Standardized crystallographic data

_cell_length_a                           7.41
_cell_length_b                           7.03
_cell_length_c                           10.17
_cell_angle_alpha                        90
_cell_angle_beta                         96.83
_cell_angle_gamma                        90
_cell_volume                             526
_cell_formula_units_Z                    4
_space_group_IT_number                   14
_space_group_name_H-M_alt                'P 1 21/c 1'
loop_
 _space_group_symop_id
 _space_group_symop_operation_xyz
 1 'x, y, z'
 2 '-x, -y, -z'
 3 '-x, 1/2+y, 1/2-z'
 4 'x, 1/2-y, 1/2+z'

# Atomic positions taken from type-defining entry

loop_
 _atom_type_symbol
 Br
 Al
loop_
 _atom_site_label
 _atom_site_type_symbol
 _atom_site_symmetry_multiplicity
 _atom_site_Wyckoff_symbol
 _atom_site_fract_x
 _atom_site_fract_y
 _atom_site_fract_z
 _atom_site_occupancy
 Br1 Br 4 e 0.0806 0.5673 0.3748 1
 Al1 Al 4 e 0.197 0.092 0.051 1
 Br2 Br 4 e 0.2508 0.3910 0.0110 1
 Br3 Br 4 e 0.6020 0.4152 0.3325 1


_exptl_crystal_colour                    ?
_exptl_crystal_density_meas              ?
_exptl_crystal_density_diffrn            3.37
_cell_measurement_temperature            ?
_cell_measurement_radiation              'X-rays, Cu Ka'
_cell_measurement_reflns_used            ?
_diffrn_ambient_temperature              ?
_diffrn_measurement_device               'Guinier film'
_diffrn_measurement_device_type          ?
_diffrn_radiation_type                   ?
_diffrn_reflns_number                    ?
_exptl_absorpt_coefficient_mu            ?
_exptl_absorpt_correction_type           ?
_computing_structure_solution            ?
_refine_ls_number_parameters             ?
_refine_ls_number_reflns                 ?
_refine_ls_R_factor_gt                   ?
_refine_ls_wR_factor_gt                  ?

# Published diffraction lines

loop_
 _refln_index_h
 _refln_index_k
 _refln_index_l
 _refln_d_spacing
 _refln_intensity_meas
 1 1 0 57.5 6
 0 1 1 50.26 2
 1 1 1 43.8 2
 2 1 1 34.44 6
 2 0 -2 31.58 5
 3 1 0 30.37 10
 2 2 -2 23.6 7
 2 3 -1 20.75 1
 2 3 1 20.25 6
 1 3 -2 19.58 2
 5 1 -1 19.32 2
 3 1 3 18.11 7
 2 1 -4 17.46 ?
 0 4 1 17.11 6
 1 3 -3 16.88 4
 2 1 4 16.26 2
 2 4 -2 15.39 2
 5 1 3 14.48 2
 6 1 4 14.25 2
 6 2 2 13.56 2
 3 5 1 12.84 1
 4 1 5 11.98 1
 2 0 6 11.64 2
 6 4 2 11.29 1
 1 3 6 10.9 1
 4 6 0 10.68 2
 4 6 -2 10.38 1
 2 4 -6 10.01 1
 2 4 6 9.7 1
 2 6 4 9.56 1

# End of data set 545032


