##############################################################################
#                                                                            #
# Al-Cl            # AlCl3 rt                                      #  545030 #
#                                                                            #
##############################################################################
#                                                                            #
#                           Pearson's Crystal Data                           #
#      Crystal Structure Database for Inorganic Compounds (on DVD)           #
#                              Release 2017/18                               #
#                  Editors: Pierre Villars and Karin Cenzual                 #
#                                                                            #
#   Copyright (c) ASM International & Material Phases Data System (MPDS),    #
# Switzerland & National Institute for Materials Science (NIMS), Japan, 2017 #
#                   All rights reserved. Version 2017.08                     #
#                                                                            #
#   This copy of Pearson's Crystal Data is licensed to:                      #
#   University of Alberta, Chemistry Department, 1-5 Installations License         #
#                                                                            #
##############################################################################

data_545030
_audit_creation_date                     2017-12-04
_audit_creation_method
;
Pearson's Crystal Data browser
;
#_database_code_PCD                      545030

# Entry summary

_chemical_formula_structural             'Al Cl~3~'
_chemical_formula_sum                    'Al Cl3'
_chemical_name_mineral                   ?
_chemical_compound_source                ?
_chemical_name_structure_type            AlCl~3~,mS16,12
_chemical_formula_weight                 133.3
_chemical_melting_point                  465

# Bibliographic data

_publ_section_title
'The structure and certain properties of aluminium halides'                   
_journal_coden_ASTM                      RJICAQ
_journal_name_full                       'Russ. J. Inorg. Chem.'
_journal_year                            1964
_journal_volume                          9
_journal_page_first                      718
_journal_page_last                       722
_journal_language                        English
loop_
 _publ_author_name
 _publ_author_address
'Semenenko K.N.'
;
Moscow M.V. Lomonosov State University
Moscow
Russia
;
'Naumova T.N.'

# Standardized crystallographic data

_cell_length_a                           5.9
_cell_length_b                           10.21
_cell_length_c                           6.17
_cell_angle_alpha                        90
_cell_angle_beta                         107.97
_cell_angle_gamma                        90
_cell_volume                             353.5
_cell_formula_units_Z                    4
_space_group_IT_number                   12
_space_group_name_H-M_alt                'C 1 2/m 1'
loop_
 _space_group_symop_id
 _space_group_symop_operation_xyz
 1 'x, y, z'
 2 '-x, -y, -z'
 3 '-x, y, -z'
 4 'x, -y, z'
 5 '1/2+x, 1/2+y, z'
 6 '1/2-x, 1/2-y, -z'
 7 '1/2-x, 1/2+y, -z'
 8 '1/2+x, 1/2-y, z'

# Atomic positions taken from type-defining entry

loop_
 _atom_type_symbol
 Cl
 Al
loop_
 _atom_site_label
 _atom_site_type_symbol
 _atom_site_symmetry_multiplicity
 _atom_site_Wyckoff_symbol
 _atom_site_fract_x
 _atom_site_fract_y
 _atom_site_fract_z
 _atom_site_occupancy
 Cl1 Cl 8 j 0.2518 0.32131 0.2248 1
 Cl2 Cl 4 i 0.2147 0 0.2263 1
 Al1 Al 4 g 0 0.1662 0 1


_exptl_crystal_colour                    ?
_exptl_crystal_density_meas              ?
_exptl_crystal_density_diffrn            2.51
_cell_measurement_temperature            ?
_cell_measurement_radiation              'X-rays, Cu Ka'
_cell_measurement_reflns_used            ?
_diffrn_ambient_temperature              ?
_diffrn_measurement_device               'Guinier film'
_diffrn_measurement_device_type          ?
_diffrn_radiation_type                   ?
_diffrn_reflns_number                    ?
_exptl_absorpt_coefficient_mu            ?
_exptl_absorpt_correction_type           ?
_computing_structure_solution            ?
_refine_ls_number_parameters             ?
_refine_ls_number_reflns                 ?
_refine_ls_R_factor_gt                   ?
_refine_ls_wR_factor_gt                  ?

# Published diffraction lines

loop_
 _refln_index_h
 _refln_index_k
 _refln_index_l
 _refln_d_spacing
 _refln_intensity_meas
 0 0 1 58.7 6
 0 1 1 51.1 2
 0 0 2 29.32 3
 2 0 0 28.06 8
 1 3 -1 24.57 10
 0 1 3 19.2 2
 2 4 -2 17.62 2
 0 3 3 16.95 10
 0 6 2 14.76 2
 2 6 0 14.59 2
 4 0 0 14.06 4
 0 8 0 12.77 2
 2 6 -2 12.26 6
 0 8 2 11.74 2
 4 2 -2 11.11 6
 4 6 0 10.85 6
 2 0 6 10.3 4
 0 5 5 10.22 2
 6 0 2 9.87 2
 2 8 4 9.73 1
 6 2 2 9.65 8
 0 3 6 9.43 1
 6 0 0 9.35 1

# End of data set 545030


