##############################################################################
#                                                                            #
# Am-Pt            # AmPt5 hex                                     #  450330 #
#                                                                            #
##############################################################################
#                                                                            #
#                           Pearson's Crystal Data                           #
#      Crystal Structure Database for Inorganic Compounds (on DVD)           #
#                              Release 2017/18                               #
#                  Editors: Pierre Villars and Karin Cenzual                 #
#                                                                            #
#   Copyright (c) ASM International & Material Phases Data System (MPDS),    #
# Switzerland & National Institute for Materials Science (NIMS), Japan, 2017 #
#                   All rights reserved. Version 2017.08                     #
#                                                                            #
#   This copy of Pearson's Crystal Data is licensed to:                      #
#   University of Alberta, Chemistry Department, 1-5 Installations License         #
#                                                                            #
##############################################################################

data_450330
_audit_creation_date                     2017-12-01
_audit_creation_method
;
Pearson's Crystal Data browser
;
#_database_code_PCD                      450330

# Entry summary

_chemical_formula_structural             'Am Pt~5~'
_chemical_formula_sum                    'Am Pt5'
_chemical_name_mineral                   ?
_chemical_compound_source                ?
_chemical_name_structure_type            CaCu~5~,hP6,191
_chemical_formula_weight                 1218.4

# Bibliographic data

_publ_section_title
;
Pr\'eparation et structure hexagonale de AmPt~5~
;
_journal_coden_ASTM                      JCOMAH
_journal_name_full                       'J. Less-Common Met.'
_journal_year                            1978
_journal_volume                          58
_journal_page_first                      P31
_journal_page_last                       P33
_journal_language                        French
loop_
 _publ_author_name
 _publ_author_address
'Rebizant J.'
;
European Commission Joint Research Center
Institute for Transuranium Elements
Karlsruhe
Germany
;
'Benedict U.'
;
European Commission Joint Research Center
Institute for Transuranium Elements
Karlsruhe
Germany
;

# Standardized crystallographic data

_cell_length_a                           5.312
_cell_length_b                           5.312
_cell_length_c                           4.411
_cell_angle_alpha                        90
_cell_angle_beta                         90
_cell_angle_gamma                        120
_cell_volume                             107.79
_cell_formula_units_Z                    1
_space_group_IT_number                   191
_space_group_name_H-M_alt                'P 6/m m m'
loop_
 _space_group_symop_id
 _space_group_symop_operation_xyz
 1 'x, y, z'
 2 '-x+y, -x, -z'
 3 '-x+y, -x, z'
 4 '-x+y, y, -z'
 5 '-x+y, y, z'
 6 '-x, -x+y, -z'
 7 '-x, -x+y, z'
 8 '-x, -y, -z'
 9 '-x, -y, z'
 10 '-y, -x, -z'
 11 '-y, -x, z'
 12 '-y, x-y, -z'
 13 '-y, x-y, z'
 14 'x, x-y, -z'
 15 'x, x-y, z'
 16 'x, y, -z'
 17 'x-y, -y, -z'
 18 'x-y, -y, z'
 19 'x-y, x, -z'
 20 'x-y, x, z'
 21 'y, -x+y, -z'
 22 'y, -x+y, z'
 23 'y, x, -z'
 24 'y, x, z'
loop_
 _atom_type_symbol
 Pt
 Am
loop_
 _atom_site_label
 _atom_site_type_symbol
 _atom_site_symmetry_multiplicity
 _atom_site_Wyckoff_symbol
 _atom_site_fract_x
 _atom_site_fract_y
 _atom_site_fract_z
 _atom_site_occupancy
 Pt2 Pt 3 g 0.5 0 0.5 1
 Pt1 Pt 2 c 0.333333 0.666667 0 1
 Am Am 1 a 0 0 0 1


_exptl_crystal_colour                    ?
_exptl_crystal_density_meas              ?
_exptl_crystal_density_diffrn            18.77
_cell_measurement_temperature            ?
_cell_measurement_radiation              'X-rays, Cu Ka1'
_cell_measurement_reflns_used            ?
_diffrn_ambient_temperature              ?
_diffrn_measurement_device               diffractometer
_diffrn_measurement_device_type          ?
_diffrn_radiation_type                   ?
_diffrn_reflns_number                    ?
_exptl_absorpt_coefficient_mu            ?
_exptl_absorpt_correction_type           ?
_computing_structure_solution            ?
_refine_ls_number_parameters             ?
_refine_ls_number_reflns                 ?
_refine_ls_R_factor_gt                   ?
_refine_ls_wR_factor_gt                  ?

# Published diffraction lines

loop_
 _refln_index_h
 _refln_index_k
 _refln_index_l
 _refln_d_spacing
 _refln_intensity_meas
 1 0 0 192.6 27
 1 1 0 337.5 33
 2 0 0 392.1 19
 1 1 1 396 100
 0 0 2 409.3 33
 2 0 1 443.7 47
 1 1 2 540.8 14
 2 1 1 569.5 11
 3 0 0 602.8 13
 3 0 1 645.7 22
 2 2 0 709.4 16
 1 1 3 736.5 15
 3 0 2 754.9 10
 2 0 3 775.6 14
 4 0 0 842.2 7
 2 2 2 853.2 15
 4 0 1 875.4 7
 0 0 4 886.6 8
 3 0 3 931.8 7
 4 0 2 981.4 2
 4 1 0 1002.4 6
 2 0 4 1012.7 5
 4 1 1 1038.5 10
 4 1 2 1152.7 2
 3 0 4 1190.8 6
 3 3 0 1208.3 5
 3 3 1 1250.9 11
 4 2 1 1289.5 4
 2 2 4 1305.9 11
 1 1 5 1339.9 5
 4 1 3 1366.9 6
 4 2 2 1449.2 5
 4 0 4 1503.8 5
 2 1 5 1566 6

# End of data set 450330


