##############################################################################
#                                                                            #
# As-O             # As2O3 cla I                                   #  541992 #
#                                                                            #
##############################################################################
#                                                                            #
#                           Pearson's Crystal Data                           #
#      Crystal Structure Database for Inorganic Compounds (on DVD)           #
#                              Release 2017/18                               #
#                  Editors: Pierre Villars and Karin Cenzual                 #
#                                                                            #
#   Copyright (c) ASM International & Material Phases Data System (MPDS),    #
# Switzerland & National Institute for Materials Science (NIMS), Japan, 2017 #
#                   All rights reserved. Version 2017.08                     #
#                                                                            #
#   This copy of Pearson's Crystal Data is licensed to:                      #
#   University of Alberta, Chemistry Department, 1-5 Installations License         #
#                                                                            #
##############################################################################

data_541992
_audit_creation_date                     2017-12-04
_audit_creation_method
;
Pearson's Crystal Data browser
;
#_database_code_PCD                      541992

# Entry summary

_chemical_formula_structural             'As~2~ O~3~'
_chemical_formula_sum                    'As2 O3'
_chemical_name_mineral                   'claudetite I'
_chemical_compound_source                synthetic
_chemical_name_structure_type            As~2~O~3~-a,mP20,14
_chemical_formula_weight                 197.8

# Bibliographic data

_publ_section_title
'Strukturuntersuchung der monoklinen Arsenikmodifikation Claudetit'           
_journal_coden_ASTM                      ZAACAB
_journal_name_full                       'Z. Anorg. Allg. Chem.'
_journal_year                            1951
_journal_volume                          266
_journal_page_first                      293
_journal_page_last                       301
_journal_language                        German
loop_
 _publ_author_name
 _publ_author_address
'Becker K.A.'
;
Kaiser Wilhelm Institute
Institut f\"ur Physikalische Chemie und Elektrochemie
Berlin
Germany
;
'Plieth K.'
;
Berlin Technical University
Institut f\"ur Physikalische Chemie und Elektrochemie
Berlin
Germany
;
'Stranski I.N.'
;
Berlin Technical University
Institut f\"ur Physikalische Chemie und Elektrochemie
Berlin
Germany
;

# Standardized crystallographic data

_cell_length_a                           4.53
_cell_length_b                           12.9
_cell_length_c                           6.6981
_cell_angle_alpha                        90
_cell_angle_beta                         128.555
_cell_angle_gamma                        90
_cell_volume                             306.1
_cell_formula_units_Z                    4
_space_group_IT_number                   14
_space_group_name_H-M_alt                'P 1 21/c 1'
loop_
 _space_group_symop_id
 _space_group_symop_operation_xyz
 1 'x, y, z'
 2 '-x, -y, -z'
 3 '-x, 1/2+y, 1/2-z'
 4 'x, 1/2-y, 1/2+z'
loop_
 _atom_type_symbol
 O
 As
loop_
 _atom_site_label
 _atom_site_type_symbol
 _atom_site_symmetry_multiplicity
 _atom_site_Wyckoff_symbol
 _atom_site_fract_x
 _atom_site_fract_y
 _atom_site_fract_z
 _atom_site_occupancy
 O3 O 4 e 0.007 0.592 0.131 1
 O1 O 4 e 0.065 0.214 0.065 1
 As1 As 4 e 0.165 0.351 0.165 1
 As2 As 4 e 0.25 0.101 0.25 1
 O2 O 4 e 0.672 0.344 0.048 1


_exptl_crystal_colour                    ?
_exptl_crystal_density_meas              4.15
_exptl_crystal_density_diffrn            4.29
_cell_measurement_temperature            ?
_cell_measurement_radiation              X-rays
_cell_measurement_reflns_used            ?
_diffrn_ambient_temperature              ?
_diffrn_measurement_device
'precession and Weissenberg photographs'                                      
_diffrn_measurement_device_type          ?
_diffrn_radiation_type                   X-rays
_diffrn_reflns_number                    ?
_exptl_absorpt_coefficient_mu            ?
_exptl_absorpt_correction_type           ?
_computing_structure_solution            'Patterson and Fourier synthesis'
_refine_ls_number_parameters             ?
_refine_ls_number_reflns                 ?
_refine_ls_R_factor_gt                   0.32
_refine_ls_wR_factor_gt                  ?

# End of data set 541992


