##############################################################################
#                                                                            #
# As-Se            # As2Se3                                        #  451599 #
#                                                                            #
##############################################################################
#                                                                            #
#                           Pearson's Crystal Data                           #
#      Crystal Structure Database for Inorganic Compounds (on DVD)           #
#                              Release 2017/18                               #
#                  Editors: Pierre Villars and Karin Cenzual                 #
#                                                                            #
#   Copyright (c) ASM International & Material Phases Data System (MPDS),    #
# Switzerland & National Institute for Materials Science (NIMS), Japan, 2017 #
#                   All rights reserved. Version 2017.08                     #
#                                                                            #
#   This copy of Pearson's Crystal Data is licensed to:                      #
#   University of Alberta, Chemistry Department, 1-5 Installations License         #
#                                                                            #
##############################################################################

data_451599
_audit_creation_date                     2017-12-01
_audit_creation_method
;
Pearson's Crystal Data browser
;
#_database_code_PCD                      451599

# Entry summary

_chemical_formula_structural             'As~2~ Se~3~'
_chemical_formula_sum                    'As2 Se3'
_chemical_name_mineral                   ?
_chemical_compound_source                ?
_chemical_name_structure_type            As~2~S~3~,mP20,14
_chemical_formula_weight                 386.7

# Bibliographic data

_publ_section_title
'Crystalline Structures of As~2~Se~3~ and As~4~Se~4~'                         
_journal_coden_ASTM                      ACBCAR
_journal_name_full                       'Acta Crystallogr. B'
_journal_year                            1973
_journal_volume                          29
_journal_page_first                      1583
_journal_page_last                       1589
_journal_language                        English
loop_
 _publ_author_name
 _publ_author_address
'Renninger A.L.'
;
Massachusetts Institute of Technology (MIT)
Cambridge
U.S.A. Massachusetts
;
'Averbach B.L.'
;
Massachusetts Institute of Technology (MIT)
Cambridge
U.S.A. Massachusetts
;

# Standardized crystallographic data

_cell_length_a                           4.3
_cell_length_b                           9.94
_cell_length_c                           12.9058
_cell_angle_alpha                        90
_cell_angle_beta                         109.927
_cell_angle_gamma                        90
_cell_volume                             518.59
_cell_formula_units_Z                    4
_space_group_IT_number                   14
_space_group_name_H-M_alt                'P 1 21/c 1'
loop_
 _space_group_symop_id
 _space_group_symop_operation_xyz
 1 'x, y, z'
 2 '-x, -y, -z'
 3 '-x, 1/2+y, 1/2-z'
 4 'x, 1/2-y, 1/2+z'
loop_
 _atom_type_symbol
 Se
 As
loop_
 _atom_site_label
 _atom_site_type_symbol
 _atom_site_symmetry_multiplicity
 _atom_site_Wyckoff_symbol
 _atom_site_fract_x
 _atom_site_fract_y
 _atom_site_fract_z
 _atom_site_occupancy
 Se(3) Se 4 e 0.3838 0.6963 0.1153 1
 As(1) As 4 e 0.1209 0.3023 0.2363 1
 Se(2) Se 4 e 0.1642 0.0908 0.1461 1
 As(2) As 4 e 0.3818 0.182 0.0153 1
 Se(1) Se 4 e 0.6327 0.3857 0.1013 1


_exptl_crystal_colour                    ?
_exptl_crystal_density_meas              4.85
_exptl_crystal_density_diffrn            4.95
_cell_measurement_temperature            ?
_cell_measurement_radiation              ?
_cell_measurement_reflns_used            ?
_diffrn_ambient_temperature              ?
_diffrn_measurement_device               diffractometer
_diffrn_measurement_device_type          ?
_diffrn_radiation_type                   'X-rays, Co Ka'
_diffrn_radiation_wavelength             1.79
_diffrn_reflns_number                    ?
_exptl_absorpt_coefficient_mu            ?
_exptl_absorpt_correction_type           ?
_computing_structure_solution            ?
_refine_ls_number_parameters             ?
_refine_ls_number_reflns                 ?
_refine_ls_R_factor_gt                   0.14
_refine_ls_wR_factor_gt                  ?
_pd_proc_ls_proof_R_factor               ?
_pd_proc_ls_proof_wR_factor              ?
_refine_ls_R_I_factor                    ?

# End of data set 451599


