##############################################################################
#                                                                            #
# As-Se            # As2Se3                                        #  531261 #
#                                                                            #
##############################################################################
#                                                                            #
#                           Pearson's Crystal Data                           #
#      Crystal Structure Database for Inorganic Compounds (on DVD)           #
#                              Release 2017/18                               #
#                  Editors: Pierre Villars and Karin Cenzual                 #
#                                                                            #
#   Copyright (c) ASM International & Material Phases Data System (MPDS),    #
# Switzerland & National Institute for Materials Science (NIMS), Japan, 2017 #
#                   All rights reserved. Version 2017.08                     #
#                                                                            #
#   This copy of Pearson's Crystal Data is licensed to:                      #
#   University of Alberta, Chemistry Department, 1-5 Installations License         #
#                                                                            #
##############################################################################

data_531261
_audit_creation_date                     2017-12-01
_audit_creation_method
;
Pearson's Crystal Data browser
;
#_database_code_PCD                      531261

# Entry summary

_chemical_formula_structural             'As~2~ Se~3~'
_chemical_formula_sum                    'As2 Se3'
_chemical_name_mineral                   ?
_chemical_compound_source                ?
_chemical_name_structure_type            As~2~S~3~,mP20,14
_chemical_formula_weight                 386.7

# Bibliographic data

_publ_section_title
;
Redetermination of the crystal structure of As~2~Se~3~ and a comparison of the coordination of As(III) in chalcogenides and their analogs
;
_journal_coden_ASTM                      INOMAF
_journal_name_full                       'Inorg. Mater.'
_journal_year                            1983
_journal_volume                          19
_journal_page_first                      1744
_journal_page_last                       1748
_journal_language                        English
loop_
 _publ_author_name
 _publ_author_address
'Kanishcheva A.S.'
;
Russian Academy of Sciences
Kurnakov N.S. Institute of General and Inorganic Chemistry
Moscow
Russia
;
'Mikhailov Y.N.'
;
Russian Academy of Sciences
Kurnakov N.S. Institute of General and Inorganic Chemistry
Moscow
Russia
;
'Zhukov E.G.'
;
Russian Academy of Sciences
Kurnakov N.S. Institute of General and Inorganic Chemistry
Moscow
Russia
;
'Grevtseva T.G.'
;
Russian Academy of Sciences
Kurnakov N.S. Institute of General and Inorganic Chemistry
Moscow
Russia
;

# Standardized crystallographic data

_cell_length_a                           4.2825
_cell_length_b                           9.9
_cell_length_c                           12.7689
_cell_angle_alpha                        90
_cell_angle_beta                         109.118
_cell_angle_gamma                        90
_cell_volume                             511.5
_cell_formula_units_Z                    4
_space_group_IT_number                   14
_space_group_name_H-M_alt                'P 1 21/c 1'
loop_
 _space_group_symop_id
 _space_group_symop_operation_xyz
 1 'x, y, z'
 2 '-x, -y, -z'
 3 '-x, 1/2+y, 1/2-z'
 4 'x, 1/2-y, 1/2+z'
loop_
 _atom_type_symbol
 Se
 As
loop_
 _atom_site_label
 _atom_site_type_symbol
 _atom_site_symmetry_multiplicity
 _atom_site_Wyckoff_symbol
 _atom_site_fract_x
 _atom_site_fract_y
 _atom_site_fract_z
 _atom_site_occupancy
 Se3 Se 4 e 0.06518 0.70185 0.12143 1
 As1 As 4 e 0.12541 0.30325 0.23629 1
 Se2 Se 4 e 0.17902 0.0897 0.15335 1
 As2 As 4 e 0.39181 0.17482 0.01076 1
 Se1 Se 4 e 0.62506 0.38193 0.09773 1


_exptl_crystal_colour                    ?
_exptl_crystal_density_meas              ?
_exptl_crystal_density_diffrn            5.02
_cell_measurement_temperature            ?
_cell_measurement_radiation              'X-rays, Mo Ka'
_cell_measurement_reflns_used            ?
_diffrn_ambient_temperature              ?
_diffrn_measurement_device               'automatic diffractometer'
_diffrn_measurement_device_type          'Syntex P21'
_diffrn_radiation_type                   'X-rays, Mo Ka'
_diffrn_reflns_number                    ?
_diffrn_reflns_theta_min                 2
_diffrn_reflns_theta_max                 40
_exptl_absorpt_coefficient_mu            36.54
_exptl_absorpt_correction_type           empirical
_computing_structure_solution            'starting values from the literature'
_refine_ls_number_parameters             ?
_refine_ls_number_reflns                 1789
_refine_ls_R_factor_gt                   0.098
_refine_ls_wR_factor_gt                  ?

# End of data set 531261


