##############################################################################
#                                                                            #
# As-Se            # As2Se3 hp                                     #  544284 #
#                                                                            #
##############################################################################
#                                                                            #
#                           Pearson's Crystal Data                           #
#      Crystal Structure Database for Inorganic Compounds (on DVD)           #
#                              Release 2017/18                               #
#                  Editors: Pierre Villars and Karin Cenzual                 #
#                                                                            #
#   Copyright (c) ASM International & Material Phases Data System (MPDS),    #
# Switzerland & National Institute for Materials Science (NIMS), Japan, 2017 #
#                   All rights reserved. Version 2017.08                     #
#                                                                            #
#   This copy of Pearson's Crystal Data is licensed to:                      #
#   University of Alberta, Chemistry Department, 1-5 Installations License         #
#                                                                            #
##############################################################################

data_544284
_audit_creation_date                     2017-12-04
_audit_creation_method
;
Pearson's Crystal Data browser
;
#_database_code_PCD                      544284

# Entry summary

_chemical_formula_structural             'As~2~ Se~3~'
_chemical_formula_sum                    'As2 Se3'
_chemical_name_mineral                   ?
_chemical_compound_source                ?
_chemical_name_structure_type            As~2~Te~3~,mS20,12
_chemical_formula_weight                 386.7

# Bibliographic data

_publ_section_title
'A physicochemical study of the As~2~Se~3~-InTe system'                       
_journal_coden_ASTM                      RJICAQ
_journal_name_full                       'Russ. J. Inorg. Chem.'
_journal_year                            1990
_journal_volume                          35
_journal_page_first                      283
_journal_page_last                       286
_journal_language                        English
loop_
 _publ_author_name
 _publ_author_address
'Dzhangirov A.Y.'
;
Azerbaijan Academy of Sciences
Il'drym Azerbaijan Polytechnic Institute
Baku
Azerbaijan
;
'Safarov M.G.'
;
Azerbaijan Academy of Sciences
Il'drym Azerbaijan Polytechnic Institute
Baku
Azerbaijan
;
'Kamarli F.M.'
;
Azerbaijan Academy of Sciences
Il'drym Azerbaijan Polytechnic Institute
Baku
Azerbaijan
;
'Badalov M.F.'
;
Azerbaijan Academy of Sciences
Il'drym Azerbaijan Polytechnic Institute
Baku
Azerbaijan
;
'Mamedova K.M.'
;
Azerbaijan Academy of Sciences
Il'drym Azerbaijan Polytechnic Institute
Baku
Azerbaijan
;
'Aliev F.G.'
;
Azerbaijan Academy of Sciences
Il'drym Azerbaijan Polytechnic Institute
Baku
Azerbaijan
;

# Standardized crystallographic data

_cell_length_a                           13.37
_cell_length_b                           3.73
_cell_length_c                           9.34
_cell_angle_alpha                        90
_cell_angle_beta                         95.
_cell_angle_gamma                        90
_cell_volume                             464
_cell_formula_units_Z                    4
_space_group_IT_number                   12
_space_group_name_H-M_alt                'C 1 2/m 1'
loop_
 _space_group_symop_id
 _space_group_symop_operation_xyz
 1 'x, y, z'
 2 '-x, -y, -z'
 3 '-x, y, -z'
 4 'x, -y, z'
 5 '1/2+x, 1/2+y, z'
 6 '1/2-x, 1/2-y, -z'
 7 '1/2-x, 1/2+y, -z'
 8 '1/2+x, 1/2-y, z'

# Atomic positions taken from type-defining entry

loop_
 _atom_type_symbol
 Se
 As
loop_
 _atom_site_label
 _atom_site_type_symbol
 _atom_site_symmetry_multiplicity
 _atom_site_Wyckoff_symbol
 _atom_site_fract_x
 _atom_site_fract_y
 _atom_site_fract_z
 _atom_site_occupancy
 Se1 Se 4 i 0.0289 0 0.2868 1
 As1 As 4 i 0.2026 0 0.1408 1
 Se2 Se 4 i 0.2223 0 0.6610 1
 Se3 Se 4 i 0.3744 0 0.0355 1
 As2 As 4 i 0.3867 0 0.5594 1


_exptl_crystal_colour                    ?
_exptl_crystal_density_meas              5.21
_exptl_crystal_density_diffrn            5.54
_cell_measurement_temperature            ?
_cell_measurement_radiation              'X-rays, Cu Ka'
_cell_measurement_reflns_used            ?
_diffrn_ambient_temperature              ?
_diffrn_measurement_device               film
_diffrn_measurement_device_type          ?
_diffrn_radiation_type                   ?
_diffrn_reflns_number                    ?
_exptl_absorpt_coefficient_mu            ?
_exptl_absorpt_correction_type           ?
_computing_structure_solution            ?
_refine_ls_number_parameters             ?
_refine_ls_number_reflns                 ?
_refine_ls_R_factor_gt                   ?
_refine_ls_wR_factor_gt                  ?

# End of data set 544284


