##############################################################################
#                                                                            #
# As-Se            # As2Se3                                        #  534598 #
#                                                                            #
##############################################################################
#                                                                            #
#                           Pearson's Crystal Data                           #
#      Crystal Structure Database for Inorganic Compounds (on DVD)           #
#                              Release 2017/18                               #
#                  Editors: Pierre Villars and Karin Cenzual                 #
#                                                                            #
#   Copyright (c) ASM International & Material Phases Data System (MPDS),    #
# Switzerland & National Institute for Materials Science (NIMS), Japan, 2017 #
#                   All rights reserved. Version 2017.08                     #
#                                                                            #
#   This copy of Pearson's Crystal Data is licensed to:                      #
#   University of Alberta, Chemistry Department, 1-5 Installations License         #
#                                                                            #
##############################################################################

data_534598
_audit_creation_date                     2017-12-04
_audit_creation_method
;
Pearson's Crystal Data browser
;
#_database_code_PCD                      534598

# Entry summary

_chemical_formula_structural             'As~2~ Se~3~'
_chemical_formula_sum                    'As2 Se3'
_chemical_name_mineral                   ?
_chemical_compound_source                ?
_chemical_name_structure_type            As~2~S~3~,mP20,14
_chemical_formula_weight                 386.7

# Bibliographic data

_publ_section_title
'The crystal structure of arsenic selenide, As~2~Se~3~'                       
_journal_coden_ASTM                      ZEKRDZ
_journal_name_full                       'Z. Kristallogr.'
_journal_year                            1985
_journal_volume                          173
_journal_page_first                      185
_journal_page_last                       191
_journal_language                        English
loop_
 _publ_author_name
 _publ_author_address
'Stergiou A.C.'
;
Thessaloniki Aristoteles University
Department of Physics
Thessaloniki
Greece
;
'Rentzeperis P.J.'
;
Thessaloniki Aristoteles University
Department of Physics
Thessaloniki
Greece
;

# Standardized crystallographic data

_cell_length_a                           4.2835
_cell_length_b                           9.9037
_cell_length_c                           12.7822
_cell_angle_alpha                        90
_cell_angle_beta                         109.121
_cell_angle_gamma                        90
_cell_volume                             512.3
_cell_formula_units_Z                    4
_space_group_IT_number                   14
_space_group_name_H-M_alt                'P 1 21/c 1'
loop_
 _space_group_symop_id
 _space_group_symop_operation_xyz
 1 'x, y, z'
 2 '-x, -y, -z'
 3 '-x, 1/2+y, 1/2-z'
 4 'x, 1/2-y, 1/2+z'
loop_
 _atom_type_symbol
 Se
 As
loop_
 _atom_site_label
 _atom_site_type_symbol
 _atom_site_symmetry_multiplicity
 _atom_site_Wyckoff_symbol
 _atom_site_fract_x
 _atom_site_fract_y
 _atom_site_fract_z
 _atom_site_occupancy
 Se(3) Se 4 e 0.0651 0.7019 0.1215 1
 As(1) As 4 e 0.1249 0.3033 0.2362 1
 Se(2) Se 4 e 0.1791 0.0896 0.1534 1
 As(2) As 4 e 0.3918 0.1747 0.0108 1
 Se(1) Se 4 e 0.6251 0.3818 0.0977 1


_exptl_crystal_colour                    'red cherry'
_exptl_crystal_density_meas              4.85
_exptl_crystal_density_diffrn            5.01
_cell_measurement_temperature            ?
_cell_measurement_radiation              'X-rays, Mo Ka'
_cell_measurement_wavelength             0.71069
_cell_measurement_reflns_used            106
_diffrn_ambient_temperature              ?
_diffrn_measurement_device               'automatic diffractometer'
_diffrn_measurement_device_type          'Philips PW1100'
_diffrn_radiation_type                   'X-rays, Mo Ka'
_diffrn_radiation_wavelength             0.71069
_diffrn_reflns_number                    4721
_diffrn_reflns_theta_min                 2
_diffrn_reflns_theta_max                 30
_exptl_absorpt_coefficient_mu            36.445
_exptl_absorpt_correction_type           empirical
_computing_structure_solution            'direct methods'
_refine_ls_number_parameters             ?
_refine_ls_number_reflns                 1014
_refine_ls_R_factor_gt                   0.038
_refine_ls_wR_factor_gt                  0.037

# End of data set 534598


