##############################################################################
#                                                                            #
# As-Se            # As2Se3                                        #  457739 #
#                                                                            #
##############################################################################
#                                                                            #
#                           Pearson's Crystal Data                           #
#      Crystal Structure Database for Inorganic Compounds (on DVD)           #
#                              Release 2017/18                               #
#                  Editors: Pierre Villars and Karin Cenzual                 #
#                                                                            #
#   Copyright (c) ASM International & Material Phases Data System (MPDS),    #
# Switzerland & National Institute for Materials Science (NIMS), Japan, 2017 #
#                   All rights reserved. Version 2017.08                     #
#                                                                            #
#   This copy of Pearson's Crystal Data is licensed to:                      #
#   University of Alberta, Chemistry Department, 1-5 Installations License         #
#                                                                            #
##############################################################################

data_457739
_audit_creation_date                     2017-12-01
_audit_creation_method
;
Pearson's Crystal Data browser
;
#_database_code_PCD                      457739

# Entry summary

_chemical_formula_structural             'As~2~ Se~3~'
_chemical_formula_sum                    'As2 Se3'
_chemical_name_mineral                   ?
_chemical_compound_source                ?
_chemical_name_structure_type            As~2~S~3~,mP20,14
_chemical_formula_weight                 386.7

# Bibliographic data

_publ_section_title
;
Refining the structure of crystalline As~2~Se~3~ by finding probable corrections to the atomic coordinates
;
_journal_coden_ASTM                      SPHCA6
_journal_name_full                       'Sov. Phys. Crystallogr.'
_journal_year                            1966
_journal_volume                          10
_journal_page_first                      509
_journal_page_last                       512
_journal_language                        English
loop_
 _publ_author_name
 _publ_author_address
'Vaipolin A.A.'
;
Russian Academy of Sciences
Ioffe A.F. Physicotechnical Institute
Saint Petersburg
Russia
;

# Standardized crystallographic data

_cell_length_a                           4.277
_cell_length_b                           9.89
_cell_length_c                           12.8231
_cell_angle_alpha                        90
_cell_angle_beta                         109.963
_cell_angle_gamma                        90
_cell_volume                             509.82
_cell_formula_units_Z                    4
_space_group_IT_number                   14
_space_group_name_H-M_alt                'P 1 21/c 1'
loop_
 _space_group_symop_id
 _space_group_symop_operation_xyz
 1 'x, y, z'
 2 '-x, -y, -z'
 3 '-x, 1/2+y, 1/2-z'
 4 'x, 1/2-y, 1/2+z'
loop_
 _atom_type_symbol
 Se
 As
loop_
 _atom_site_label
 _atom_site_type_symbol
 _atom_site_symmetry_multiplicity
 _atom_site_Wyckoff_symbol
 _atom_site_fract_x
 _atom_site_fract_y
 _atom_site_fract_z
 _atom_site_occupancy
 SeIII Se 4 e 0.069 0.702 0.121 1
 AsI As 4 e 0.1255 0.3045 0.2355 1
 SeII Se 4 e 0.1665 0.094 0.1535 1
 AsII As 4 e 0.385 0.178 0.01 1
 SeI Se 4 e 0.636 0.381 0.0975 1


_exptl_crystal_colour                    ?
_exptl_crystal_density_meas              ?
_exptl_crystal_density_diffrn            5.04
_cell_measurement_temperature            ?
_cell_measurement_radiation              'X-rays, Cu Ka'
_cell_measurement_reflns_used            ?
_diffrn_ambient_temperature              ?
_diffrn_measurement_device               'Weissenberg photographs'
_diffrn_measurement_device_type          ?
_diffrn_radiation_type                   'X-rays, Cu Ka'
_diffrn_reflns_number                    ?
_exptl_absorpt_coefficient_mu            ?
_exptl_absorpt_correction_type           ?
_computing_structure_solution            'starting values from the literature'
_refine_ls_number_parameters             15
_refine_ls_number_reflns                 ?
_refine_ls_R_factor_gt                   0.138
_refine_ls_wR_factor_gt                  ?

# End of data set 457739


