##############################################################################
#                                                                            #
# As-Te            # As2Te3 rt                                     #  531273 #
#                                                                            #
##############################################################################
#                                                                            #
#                           Pearson's Crystal Data                           #
#      Crystal Structure Database for Inorganic Compounds (on DVD)           #
#                              Release 2017/18                               #
#                  Editors: Pierre Villars and Karin Cenzual                 #
#                                                                            #
#   Copyright (c) ASM International & Material Phases Data System (MPDS),    #
# Switzerland & National Institute for Materials Science (NIMS), Japan, 2017 #
#                   All rights reserved. Version 2017.08                     #
#                                                                            #
#   This copy of Pearson's Crystal Data is licensed to:                      #
#   University of Alberta, Chemistry Department, 1-5 Installations License         #
#                                                                            #
##############################################################################

data_531273
_audit_creation_date                     2017-12-01
_audit_creation_method
;
Pearson's Crystal Data browser
;
#_database_code_PCD                      531273

# Entry summary

_chemical_formula_structural             'As~2~ Te~3~'
_chemical_formula_sum                    'As2 Te3'
_chemical_name_mineral                   ?
_chemical_compound_source                ?
_chemical_name_structure_type            As~2~Te~3~,mS20,12
_chemical_formula_weight                 532.6

# Bibliographic data

_publ_section_title
'Refinement of the crystal structure of arsenic telluride As~2~Te~3~'         
_journal_coden_ASTM                      INOMAF
_journal_name_full                       'Inorg. Mater.'
_journal_year                            1982
_journal_volume                          18
_journal_page_first                      796
_journal_page_last                       799
_journal_language                        English
loop_
 _publ_author_name
 _publ_author_address
'Kanishcheva A.S.'
;
Russian Academy of Sciences
Kurnakov N.S. Institute of General and Inorganic Chemistry
Moscow
Russia
;
'Milhailov Y.N.'
;
Russian Academy of Sciences
Kurnakov N.S. Institute of General and Inorganic Chemistry
Moscow
Russia
;
'Chernov A.P.'
;
Russian Academy of Sciences
Kurnakov N.S. Institute of General and Inorganic Chemistry
Moscow
Russia
;

# Standardized crystallographic data

_cell_length_a                           14.364
_cell_length_b                           4.025
_cell_length_c                           9.889
_cell_angle_alpha                        90
_cell_angle_beta                         95.14
_cell_angle_gamma                        90
_cell_volume                             569.43
_cell_formula_units_Z                    4
_space_group_IT_number                   12
_space_group_name_H-M_alt                'C 1 2/m 1'
loop_
 _space_group_symop_id
 _space_group_symop_operation_xyz
 1 'x, y, z'
 2 '-x, -y, -z'
 3 '-x, y, -z'
 4 'x, -y, z'
 5 '1/2+x, 1/2+y, z'
 6 '1/2-x, 1/2-y, -z'
 7 '1/2-x, 1/2+y, -z'
 8 '1/2+x, 1/2-y, z'
loop_
 _atom_type_symbol
 Te
 As
loop_
 _atom_site_label
 _atom_site_type_symbol
 _atom_site_symmetry_multiplicity
 _atom_site_Wyckoff_symbol
 _atom_site_fract_x
 _atom_site_fract_y
 _atom_site_fract_z
 _atom_site_occupancy
 Te(1) Te 4 i 0.02929 0 0.28714 1
 As(2) As 4 i 0.20338 0 0.14129 1
 Te(2) Te 4 i 0.22152 0 0.66021 1
 Te(3) Te 4 i 0.37395 0 0.0353 1
 As(1) As 4 i 0.38789 0 0.55831 1


_exptl_crystal_colour                    ?
_exptl_crystal_density_meas              6.25
_exptl_crystal_density_diffrn            6.21
_cell_measurement_temperature            ?
_cell_measurement_radiation              'X-rays, Mo Ka'
_cell_measurement_reflns_used            24
_diffrn_ambient_temperature              ?
_diffrn_measurement_device               'automatic diffractometer'
_diffrn_measurement_device_type          'Syntex P21'
_diffrn_radiation_type                   'X-rays, Mo Ka'
_diffrn_reflns_number                    ?
_diffrn_reflns_theta_min                 2
_diffrn_reflns_theta_max                 35
_exptl_absorpt_coefficient_mu            ?
_exptl_absorpt_correction_type           ?
_computing_structure_solution            'starting values from the literature'
_refine_ls_number_parameters             ?
_refine_ls_number_reflns                 1034
_refine_ls_R_factor_gt                   0.063
_refine_ls_wR_factor_gt                  0.079

# End of data set 531273


