##############################################################################
#                                                                            #
# As-F-I           # AsI2F6                                        # 1510409 #
#                                                                            #
##############################################################################
#                                                                            #
#                           Pearson's Crystal Data                           #
#      Crystal Structure Database for Inorganic Compounds (on DVD)           #
#                              Release 2017/18                               #
#                  Editors: Pierre Villars and Karin Cenzual                 #
#                                                                            #
#   Copyright (c) ASM International & Material Phases Data System (MPDS),    #
# Switzerland & National Institute for Materials Science (NIMS), Japan, 2017 #
#                   All rights reserved. Version 2017.08                     #
#                                                                            #
#   This copy of Pearson's Crystal Data is licensed to:                      #
#   University of Alberta, Chemistry Department, 1-5 Installations License         #
#                                                                            #
##############################################################################

data_1510409
_audit_creation_date                     2017-12-05
_audit_creation_method
;
Pearson's Crystal Data browser
;
#_database_code_PCD                      1510409

# Entry summary

_chemical_formula_structural             'As I~2~ F~6~'
_chemical_formula_sum                    'As F6 I2'
_chemical_name_mineral                   ?
_chemical_compound_source                ?
_chemical_name_structure_type            AsI~2~F~6~,mS36,12
_chemical_formula_weight                 442.7

# Bibliographic data

_publ_section_title
;
Preparation and solid-state and solution studies of three compounds of the tetraiodine dication I~4~^2+^: I~4~^2+^(AsF~6~^-^)~2~, I~4~^2+^(SbF~6~^-^)~2~, and I~4~^2+^(Sb~3~F~14~^-^)(SbF~6~^-^)
;
_journal_coden_ASTM                      INOCAJ
_journal_name_full                       'Inorg. Chem.'
_journal_year                            1988
_journal_volume                          27
_journal_page_first                      4350
_journal_page_last                       4355
_journal_language                        English
loop_
 _publ_author_name
 _publ_author_address
'Faggiani R.'
;
Hamilton McMaster University
Department of Chemistry
Hamilton
Canada
;
'Gillespie R.J.'
;
Hamilton McMaster University
Department of Chemistry
Hamilton
Canada
;
'Kapoor R.'
;
Hamilton McMaster University
Department of Chemistry
Hamilton
Canada
;
'Lock C.J.L.'
;
Hamilton McMaster University
Department of Chemistry
Hamilton
Canada
;
'Vekris J.E.'
;
Hamilton McMaster University
Department of Chemistry
Hamilton
Canada
;

# Standardized crystallographic data

_cell_length_a                           12.411
_cell_length_b                           9.81
_cell_length_c                           5.876
_cell_angle_alpha                        90
_cell_angle_beta                         104.06
_cell_angle_gamma                        90
_cell_volume                             694
_cell_formula_units_Z                    4
_space_group_IT_number                   12
_space_group_name_H-M_alt                'C 1 2/m 1'
loop_
 _space_group_symop_id
 _space_group_symop_operation_xyz
 1 'x, y, z'
 2 '-x, -y, -z'
 3 '-x, y, -z'
 4 'x, -y, z'
 5 '1/2+x, 1/2+y, z'
 6 '1/2-x, 1/2-y, -z'
 7 '1/2-x, 1/2+y, -z'
 8 '1/2+x, 1/2-y, z'
loop_
 _atom_type_symbol
 I
 F
 As
loop_
 _atom_site_label
 _atom_site_type_symbol
 _atom_site_symmetry_multiplicity
 _atom_site_Wyckoff_symbol
 _atom_site_fract_x
 _atom_site_fract_y
 _atom_site_fract_z
 _atom_site_occupancy
 I I 8 j 0.0739 0.1667 0.3796 1
 F2 F 8 j 0.164 0.383 0.113 1
 F3 F 8 j 0.273 0.12 0.243 1
 As As 4 i 0.3059 0 0.0635 1
 F4 F 4 i 0.438 0 0.213 1
 F1 F 4 i 0.829 0 0.066 1


_exptl_crystal_colour                    'red dark'
_exptl_crystal_density_meas              ?
_exptl_crystal_density_diffrn            4.24
_cell_measurement_temperature            ?
_cell_measurement_radiation              'X-rays, Mo Ka'
_cell_measurement_wavelength             0.71069
_cell_measurement_reflns_used            15
_diffrn_ambient_temperature              238
_diffrn_measurement_device               'automatic diffractometer'
_diffrn_measurement_device_type          'Syntex P21'
_diffrn_radiation_type                   'X-rays, Mo Ka'
_diffrn_radiation_wavelength             0.71069
_diffrn_reflns_number                    941
_exptl_absorpt_coefficient_mu            14.08
_exptl_absorpt_correction_type           empirical
_computing_structure_solution            'Patterson and Fourier synthesis'
_refine_ls_number_parameters             ?
_refine_ls_number_reflns                 811
_refine_ls_R_factor_gt                   0.052
_refine_ls_wR_factor_gt                  0.059

# End of data set 1510409


