##############################################################################
#                                                                            #
# As-F-I           # AsI5F6                                        # 1510268 #
#                                                                            #
##############################################################################
#                                                                            #
#                           Pearson's Crystal Data                           #
#      Crystal Structure Database for Inorganic Compounds (on DVD)           #
#                              Release 2017/18                               #
#                  Editors: Pierre Villars and Karin Cenzual                 #
#                                                                            #
#   Copyright (c) ASM International & Material Phases Data System (MPDS),    #
# Switzerland & National Institute for Materials Science (NIMS), Japan, 2017 #
#                   All rights reserved. Version 2017.08                     #
#                                                                            #
#   This copy of Pearson's Crystal Data is licensed to:                      #
#   University of Alberta, Chemistry Department, 1-5 Installations License         #
#                                                                            #
##############################################################################

data_1510268
_audit_creation_date                     2017-12-05
_audit_creation_method
;
Pearson's Crystal Data browser
;
#_database_code_PCD                      1510268

# Entry summary

_chemical_formula_structural             'As I~5~ F~6~'
_chemical_formula_sum                    'As F6 I5'
_chemical_name_mineral                   ?
_chemical_compound_source                ?
_chemical_name_structure_type            AsI~5~F~6~,mS48,15
_chemical_formula_weight                 823.4

# Bibliographic data

_publ_section_title
;
Preparation and X-ray crystal structure of [I~5~^+^][AsF~6~^-^] and electronic structure of the I~5~^+^ cation
;
_journal_coden_ASTM                      INOCAJ
_journal_name_full                       'Inorg. Chem.'
_journal_year                            1986
_journal_volume                          25
_journal_page_first                      422
_journal_page_last                       426
_journal_language                        English
loop_
 _publ_author_name
 _publ_author_address
'Apblett A.'
;
Fredericton New Brunswick University
Department of Chemistry
Fredericton
Canada
;
'Grein F.'
;
Fredericton New Brunswick University
Department of Chemistry
Fredericton
Canada
;
'Johnson J.P.'
;
Fredericton New Brunswick University
Department of Chemistry
Fredericton
Canada
;
'Passmore J.'
;
Fredericton New Brunswick University
Department of Chemistry
Fredericton
Canada
;
'White P.S.'
;
Fredericton New Brunswick University
Department of Chemistry
Fredericton
Canada
;

# Standardized crystallographic data

_cell_length_a                           10.529
_cell_length_b                           18.568
_cell_length_c                           8.32
_cell_angle_alpha                        90
_cell_angle_beta                         128.51
_cell_angle_gamma                        90
_cell_volume                             1272.8
_cell_formula_units_Z                    4
_space_group_IT_number                   15
_space_group_name_H-M_alt                'C 1 2/c 1'
loop_
 _space_group_symop_id
 _space_group_symop_operation_xyz
 1 'x, y, z'
 2 '-x, -y, -z'
 3 '-x, y, 1/2-z'
 4 'x, -y, 1/2+z'
 5 '1/2+x, 1/2+y, z'
 6 '1/2-x, 1/2-y, -z'
 7 '1/2-x, 1/2+y, 1/2-z'
 8 '1/2+x, 1/2-y, 1/2+z'
loop_
 _atom_type_symbol
 F
 I
 As
loop_
 _atom_site_label
 _atom_site_type_symbol
 _atom_site_symmetry_multiplicity
 _atom_site_Wyckoff_symbol
 _atom_site_fract_x
 _atom_site_fract_y
 _atom_site_fract_z
 _atom_site_occupancy
 F2 F 8 f 0.0483 0.2839 0.4317 1
 F3 F 8 f 0.0494 0.4117 0.4104 1
 I2 I 8 f 0.0814 0.1431 0.05769 1
 F1 F 8 f 0.1943 0.3434 0.3353 1
 I1 I 8 f 0.2363 0.02873 0.06838 1
 As As 4 e 0 0.34406 0.25 1
 I3 I 4 c 0.25 0.25 0 1


_exptl_crystal_colour                    'black green'
_exptl_crystal_density_meas              ?
_exptl_crystal_density_diffrn            4.30
_cell_measurement_temperature            ?
_cell_measurement_radiation              'X-rays, Mo Ka'
_cell_measurement_wavelength             0.71073
_cell_measurement_reflns_used            20
_diffrn_ambient_temperature              298
_diffrn_measurement_device               'automatic diffractometer'
_diffrn_measurement_device_type          'Picker FACS-I'
_diffrn_radiation_type                   'X-rays, Mo Ka'
_diffrn_radiation_wavelength             0.71073
_diffrn_reflns_number                    2191
_diffrn_reflns_theta_min                 2.5
_diffrn_reflns_theta_max                 25
_exptl_absorpt_coefficient_mu            14.7
_exptl_absorpt_correction_type           empirical
_computing_structure_solution            'direct methods, Fourier synthesis'
_refine_ls_number_parameters             58
_refine_ls_number_reflns                 925
_refine_ls_R_factor_gt                   0.066
_refine_ls_wR_factor_gt                  0.071

# End of data set 1510268


