##############################################################################
#                                                                            #
# As-S             # AsS rea                                       #  559774 #
#                                                                            #
##############################################################################
#                                                                            #
#                           Pearson's Crystal Data                           #
#      Crystal Structure Database for Inorganic Compounds (on DVD)           #
#                              Release 2017/18                               #
#                  Editors: Pierre Villars and Karin Cenzual                 #
#                                                                            #
#   Copyright (c) ASM International & Material Phases Data System (MPDS),    #
# Switzerland & National Institute for Materials Science (NIMS), Japan, 2017 #
#                   All rights reserved. Version 2017.08                     #
#                                                                            #
#   This copy of Pearson's Crystal Data is licensed to:                      #
#   University of Alberta, Chemistry Department, 1-5 Installations License         #
#                                                                            #
##############################################################################

data_559774
_audit_creation_date                     2017-12-04
_audit_creation_method
;
Pearson's Crystal Data browser
;
#_database_code_PCD                      559774

# Entry summary

_chemical_formula_structural             'As S'
_chemical_formula_sum                    'As S'
_chemical_name_mineral                   realgar
_chemical_compound_source                synthetic
_chemical_name_structure_type            AsS-a,mP32,14
_chemical_formula_weight                 107.0

# Bibliographic data

_publ_section_title
'The structure and thermal properties of synthetic realgar (As~4~S~4~)'       
_journal_coden_ASTM                      JINCAO
_journal_name_full                       'J. Inorg. Nucl. Chem.'
_journal_year                            1970
_journal_volume                          32
_journal_page_first                      3769
_journal_page_last                       3774
_journal_language                        English
loop_
 _publ_author_name
 _publ_author_address
'Street G.B.'
;
International Business Machines Corp. (IBM)
Research Laboratory
San Jos\'e
U.S.A. California
;

# Standardized crystallographic data

_cell_length_a                           6.585
_cell_length_b                           13.534
_cell_length_c                           9.7758
_cell_angle_alpha                        90
_cell_angle_beta                         113.818
_cell_angle_gamma                        90
_cell_volume                             797
_cell_formula_units_Z                    16
_space_group_IT_number                   14
_space_group_name_H-M_alt                'P 1 21/c 1'
loop_
 _space_group_symop_id
 _space_group_symop_operation_xyz
 1 'x, y, z'
 2 '-x, -y, -z'
 3 '-x, 1/2+y, 1/2-z'
 4 'x, 1/2-y, 1/2+z'

# Atomic positions taken from type-defining entry

loop_
 _atom_type_symbol
 S
 As
loop_
 _atom_site_label
 _atom_site_type_symbol
 _atom_site_symmetry_multiplicity
 _atom_site_Wyckoff_symbol
 _atom_site_fract_x
 _atom_site_fract_y
 _atom_site_fract_z
 _atom_site_occupancy
 S1 S 4 e 0.05597 0.28976 0.10702 1
 S2 S 4 e 0.09822 0.52299 0.21388 1
 As1 As 4 e 0.14335 0.37334 0.32051 1
 As2 As 4 e 0.32523 0.33917 0.04014 1
 S3 S 4 e 0.35617 0.00604 0.15479 1
 As3 As 4 e 0.35807 0.5206 0.12199 1
 As4 As 4 e 0.56791 0.3609 0.42373 1
 S4 S 4 e 0.59951 0.27413 0.23875 1


_exptl_crystal_colour                    ?
_exptl_crystal_density_meas              ?
_exptl_crystal_density_diffrn            3.57
_cell_measurement_temperature            ?
_cell_measurement_radiation              'X-rays, Cu Ka'
_cell_measurement_reflns_used            ?
_diffrn_ambient_temperature              ?
_diffrn_measurement_device               'Norelco film'
_diffrn_measurement_device_type          ?
_diffrn_radiation_type                   ?
_diffrn_reflns_number                    ?
_exptl_absorpt_coefficient_mu            ?
_exptl_absorpt_correction_type           ?
_computing_structure_solution            ?
_refine_ls_number_parameters             ?
_refine_ls_number_reflns                 ?
_refine_ls_R_factor_gt                   ?
_refine_ls_wR_factor_gt                  ?

# Published diffraction lines

loop_
 _refln_index_h
 _refln_index_k
 _refln_index_l
 _refln_d_spacing
 _refln_intensity_meas
 -1 1 0 74.61 8
 0 2 0 67.67 17
 -1 0 1 60.25 34
 0 1 1 57.23 55
 -1 1 1 55.04 22
 -1 2 0 53.96 100
 0 2 1 46.17 16
 -2 1 0 42.46 6
 -2 1 1 40.66 14
 1 2 1 37.95 5
 -2 2 0 37.31 11
 0 3 1 36.71 8
 -2 2 1 36.07 12
 -1 4 0 31.65 78
 -3 0 1 30.44 54
 0 4 1 29.82 50
 -2 1 2 29.4 37
 2 2 1 29.24 58
 0 2 2 28.62 15
 -3 2 1 27.8 10
 1 4 1 27.22 72
 -2 4 0 26.98 27
 -2 4 1 26.5 8
 -1 5 0 25.91 23
 -3 1 2 25.15 12
 -3 3 0 24.87 17
 -1 5 1 24.69 34
 3 0 1 24.42 25
 2 1 2 22.6 30
 -1 0 3 21.92 20

# End of data set 559774


