##############################################################################
#                                                                            #
# As-Se            # AsSe                                          #  530409 #
#                                                                            #
##############################################################################
#                                                                            #
#                           Pearson's Crystal Data                           #
#      Crystal Structure Database for Inorganic Compounds (on DVD)           #
#                              Release 2017/18                               #
#                  Editors: Pierre Villars and Karin Cenzual                 #
#                                                                            #
#   Copyright (c) ASM International & Material Phases Data System (MPDS),    #
# Switzerland & National Institute for Materials Science (NIMS), Japan, 2017 #
#                   All rights reserved. Version 2017.08                     #
#                                                                            #
#   This copy of Pearson's Crystal Data is licensed to:                      #
#   University of Alberta, Chemistry Department, 1-5 Installations License         #
#                                                                            #
##############################################################################

data_530409
_audit_creation_date                     2017-12-01
_audit_creation_method
;
Pearson's Crystal Data browser
;
#_database_code_PCD                      530409

# Entry summary

_chemical_formula_structural             'As Se'
_chemical_formula_sum                    'As Se'
_chemical_name_mineral                   ?
_chemical_compound_source                ?
_chemical_name_structure_type            AsS-a,mP32,14
_chemical_formula_weight                 153.9

# Bibliographic data

_publ_section_title
'Crystal Structure of Tetra-arsenic Tetraselenide'                            
_journal_coden_ASTM                      JCDTBI
_journal_name_full                       'J. Chem. Soc., Dalton Trans.'
_journal_year                            1973
_journal_volume                          ?
_journal_page_first                      1739
_journal_page_last                       1740
_journal_language                        English
loop_
 _publ_author_name
 _publ_author_address
'Bastow T.J.'
;
Commonwealth Scientific and Industrial Research Organization (CSIRO)
Division of Chemical Physics
Clayton
Australia
;
'Whitfield H.J.'
;
Commonwealth Scientific and Industrial Research Organization (CSIRO)
Division of Chemical Physics
Clayton
Australia
;

# Standardized crystallographic data

_cell_length_a                           6.73
_cell_length_b                           13.8
_cell_length_c                           9.92
_cell_angle_alpha                        90
_cell_angle_beta                         112.437
_cell_angle_gamma                        90
_cell_volume                             851.57
_cell_formula_units_Z                    16
_space_group_IT_number                   14
_space_group_name_H-M_alt                'P 1 21/c 1'
loop_
 _space_group_symop_id
 _space_group_symop_operation_xyz
 1 'x, y, z'
 2 '-x, -y, -z'
 3 '-x, 1/2+y, 1/2-z'
 4 'x, 1/2-y, 1/2+z'
loop_
 _atom_type_symbol
 Se
 As
loop_
 _atom_site_label
 _atom_site_type_symbol
 _atom_site_symmetry_multiplicity
 _atom_site_Wyckoff_symbol
 _atom_site_fract_x
 _atom_site_fract_y
 _atom_site_fract_z
 _atom_site_occupancy
 Se(4) Se 4 e 0.0492 0.2822 0.1018 1
 Se(2) Se 4 e 0.0887 0.5252 0.2132 1
 As(3) As 4 e 0.1504 0.3688 0.3256 1
 As(4) As 4 e 0.3325 0.3397 0.0363 1
 Se(1) Se 4 e 0.345 0.0101 0.1515 1
 As(1) As 4 e 0.3593 0.5182 0.1141 1
 As(2) As 4 e 0.5638 0.3595 0.4271 1
 Se(3) Se 4 e 0.6143 0.2677 0.2414 1


_exptl_crystal_colour                    ?
_exptl_crystal_density_meas              4.75(5)
_exptl_crystal_density_diffrn            4.80
_cell_measurement_temperature            ?
_cell_measurement_radiation              'X-rays, Cu Ka'
_cell_measurement_wavelength             1.5418
_cell_measurement_reflns_used            ?
_diffrn_ambient_temperature              ?
_diffrn_measurement_device               'Weissenberg photographs'
_diffrn_measurement_device_type          ?
_diffrn_radiation_type                   'X-rays, Cu Ka'
_diffrn_radiation_wavelength             1.5418
_diffrn_reflns_number                    1008
_exptl_absorpt_coefficient_mu            42.1
_exptl_absorpt_correction_type           ?
_computing_structure_solution            ?
_refine_ls_number_parameters             ?
_refine_ls_number_reflns                 ?
_refine_ls_R_factor_gt                   0.107
_refine_ls_wR_factor_gt                  ?

# End of data set 530409


