##############################################################################
#                                                                            #
# As-Se            # AsSe                                          #  451604 #
#                                                                            #
##############################################################################
#                                                                            #
#                           Pearson's Crystal Data                           #
#      Crystal Structure Database for Inorganic Compounds (on DVD)           #
#                              Release 2017/18                               #
#                  Editors: Pierre Villars and Karin Cenzual                 #
#                                                                            #
#   Copyright (c) ASM International & Material Phases Data System (MPDS),    #
# Switzerland & National Institute for Materials Science (NIMS), Japan, 2017 #
#                   All rights reserved. Version 2017.08                     #
#                                                                            #
#   This copy of Pearson's Crystal Data is licensed to:                      #
#   University of Alberta, Chemistry Department, 1-5 Installations License         #
#                                                                            #
##############################################################################

data_451604
_audit_creation_date                     2017-12-01
_audit_creation_method
;
Pearson's Crystal Data browser
;
#_database_code_PCD                      451604

# Entry summary

_chemical_formula_structural             'As Se'
_chemical_formula_sum                    'As Se'
_chemical_name_mineral                   ?
_chemical_compound_source                ?
_chemical_name_structure_type            AsS-a,mP32,14
_chemical_formula_weight                 153.9

# Bibliographic data

_publ_section_title                      'Tetra-arsenic Tetraselenide'
_journal_coden_ASTM                      ACBCAR
_journal_name_full                       'Acta Crystallogr. B'
_journal_year                            1973
_journal_volume                          29
_journal_page_first                      2014
_journal_page_last                       2016
_journal_language                        English
loop_
 _publ_author_name
 _publ_author_address
'Smail E.J.'
;
Cambridge University
Chemical Laboratory
Cambridge
United Kingdom
;
'Sheildrick G.M.'
;
Cambridge University
Chemical Laboratory
Cambridge
United Kingdom
;

# Standardized crystallographic data

_cell_length_a                           6.74
_cell_length_b                           13.8
_cell_length_c                           10.0141
_cell_angle_alpha                        90
_cell_angle_beta                         113.815
_cell_angle_gamma                        90
_cell_volume                             852.12
_cell_formula_units_Z                    16
_space_group_IT_number                   14
_space_group_name_H-M_alt                'P 1 21/c 1'
loop_
 _space_group_symop_id
 _space_group_symop_operation_xyz
 1 'x, y, z'
 2 '-x, -y, -z'
 3 '-x, 1/2+y, 1/2-z'
 4 'x, 1/2-y, 1/2+z'
loop_
 _atom_type_symbol
 Se
 As
loop_
 _atom_site_label
 _atom_site_type_symbol
 _atom_site_symmetry_multiplicity
 _atom_site_Wyckoff_symbol
 _atom_site_fract_x
 _atom_site_fract_y
 _atom_site_fract_z
 _atom_site_occupancy
 Se(4) Se 4 e 0.0521 0.2819 0.1015 1
 Se(2) Se 4 e 0.0895 0.5249 0.2125 1
 As(3) As 4 e 0.1491 0.3694 0.3254 1
 As(4) As 4 e 0.3332 0.3401 0.0366 1
 Se(1) Se 4 e 0.3456 0.0098 0.1516 1
 As(1) As 4 e 0.3577 0.5182 0.1141 1
 As(2) As 4 e 0.563 0.3597 0.427 1
 Se(3) Se 4 e 0.6137 0.2676 0.2419 1


_exptl_crystal_colour                    ?
_exptl_crystal_density_meas              ?
_exptl_crystal_density_diffrn            4.80
_cell_measurement_temperature            ?
_cell_measurement_radiation              'X-rays, Mo Ka'
_cell_measurement_wavelength             0.71069
_pd_proc_wavelength                      0.71069
_cell_measurement_reflns_used            ?
_diffrn_ambient_temperature              ?
_diffrn_measurement_device               'automatic diffractometer'
_diffrn_measurement_device_type          'STOE STADI 2'
_diffrn_radiation_type                   'X-rays, Mo Ka'
_diffrn_reflns_number                    1484
_exptl_absorpt_coefficient_mu            ?
_exptl_absorpt_correction_type           yes
_computing_structure_solution            'starting values from the literature'
_refine_ls_number_parameters             ?
_refine_ls_number_reflns                 684
_refine_ls_R_factor_gt                   0.074
_refine_ls_wR_factor_gt                  0.070

# End of data set 451604


