##############################################################################
#                                                                            #
# Au-Mn            # Au11Mn3                                       # 1503170 #
#                                                                            #
##############################################################################
#                                                                            #
#                           Pearson's Crystal Data                           #
#      Crystal Structure Database for Inorganic Compounds (on DVD)           #
#                              Release 2017/18                               #
#                  Editors: Pierre Villars and Karin Cenzual                 #
#                                                                            #
#   Copyright (c) ASM International & Material Phases Data System (MPDS),    #
# Switzerland & National Institute for Materials Science (NIMS), Japan, 2017 #
#                   All rights reserved. Version 2017.08                     #
#                                                                            #
#   This copy of Pearson's Crystal Data is licensed to:                      #
#   University of Alberta, Chemistry Department, 1-5 Installations License         #
#                                                                            #
##############################################################################

data_1503170
_audit_creation_date                     2017-12-05
_audit_creation_method
;
Pearson's Crystal Data browser
;
#_database_code_PCD                      1503170

# Entry summary

_chemical_formula_structural             'Au~11~ Mn~3~'
_chemical_formula_sum                    'Au11 Mn3'
_chemical_name_mineral                   ?
_chemical_compound_source                ?
_chemical_name_structure_type            Au~11~Mn~3~,mP28,14
_chemical_formula_weight                 2331.4

# Bibliographic data

_publ_section_title
;
One-Dimensional Antiphase Structure of Au~22~Mn~6~ Studied by High-Voltage, High-Resolution Electron Microscopy
;
_journal_coden_ASTM                      ACACBN
_journal_name_full                       'Acta Crystallogr. A'
_journal_year                            1982
_journal_volume                          38
_journal_page_first                      269
_journal_page_last                       274
_journal_language                        English
loop_
 _publ_author_name
 _publ_author_address
'Hiraga K.'
;
Sendai Miyagi Tohoku University
Research Institute of Iron, Steel and Other Metals
Sendai / Miyagi
Japan
;
'Hirabayashi M.'
;
Sendai Miyagi Tohoku University
Research Institute of Iron, Steel and Other Metals
Sendai / Miyagi
Japan
;
'Terasaki O.'
;
Sendai Miyagi Tohoku University
Department of Physics
Sendai / Miyagi
Japan
;
'Watanabe D.'
;
Sendai Miyagi Tohoku University
Department of Physics
Sendai / Miyagi
Japan
;

# Standardized crystallographic data

_cell_length_a                           12.6
_cell_length_b                           4
_cell_length_c                           8.9
_cell_angle_alpha                        90
_cell_angle_beta                         98.2
_cell_angle_gamma                        90
_cell_volume                             444
_cell_formula_units_Z                    2
_space_group_IT_number                   14
_space_group_name_H-M_alt                'P 1 21/c 1'
loop_
 _space_group_symop_id
 _space_group_symop_operation_xyz
 1 'x, y, z'
 2 '-x, -y, -z'
 3 '-x, 1/2+y, 1/2-z'
 4 'x, 1/2-y, 1/2+z'
loop_
 _atom_type_symbol
 Au
 Mn
loop_
 _atom_site_label
 _atom_site_type_symbol
 _atom_site_symmetry_multiplicity
 _atom_site_Wyckoff_symbol
 _atom_site_fract_x
 _atom_site_fract_y
 _atom_site_fract_z
 _atom_site_occupancy
 Au5 Au 4 e 0.07143 0.0 0.28571 1
 Au2 Au 4 e 0.14286 0.5 0.07143 1
 Au3 Au 4 e 0.21429 0.5 0.35714 1
 Au6 Au 4 e 0.28571 0.0 0.14286 1
 Mn2 Mn 4 e 0.35714 0.0 0.42857 1
 Au4 Au 4 e 0.57143 0.0 0.28571 1
 Au1 Au 2 b 0.5 0 0 1
 Mn1 Mn 2 a 0 0 0 1


_exptl_crystal_colour                    ?
_exptl_crystal_density_meas              ?
_exptl_crystal_density_diffrn            17.44
_cell_measurement_temperature            ?
_cell_measurement_radiation              electrons
_cell_measurement_reflns_used            ?
_diffrn_ambient_temperature              ?
_diffrn_measurement_device               'electron microscopy'
_diffrn_measurement_device_type          ?
_diffrn_radiation_type                   electrons
_diffrn_reflns_number                    ?
_exptl_absorpt_coefficient_mu            ?
_exptl_absorpt_correction_type           ?
_computing_structure_solution            'model derived from HREM images'
_refine_ls_number_parameters             ?
_refine_ls_number_reflns                 ?
_refine_ls_R_factor_gt                   ?
_refine_ls_wR_factor_gt                  ?

# End of data set 1503170


