##############################################################################
#                                                                            #
# Au-Mn            # Au5Mn2 rt                                     #  558325 #
#                                                                            #
##############################################################################
#                                                                            #
#                           Pearson's Crystal Data                           #
#      Crystal Structure Database for Inorganic Compounds (on DVD)           #
#                              Release 2017/18                               #
#                  Editors: Pierre Villars and Karin Cenzual                 #
#                                                                            #
#   Copyright (c) ASM International & Material Phases Data System (MPDS),    #
# Switzerland & National Institute for Materials Science (NIMS), Japan, 2017 #
#                   All rights reserved. Version 2017.08                     #
#                                                                            #
#   This copy of Pearson's Crystal Data is licensed to:                      #
#   University of Alberta, Chemistry Department, 1-5 Installations License         #
#                                                                            #
##############################################################################

data_558325
_audit_creation_date                     2017-12-04
_audit_creation_method
;
Pearson's Crystal Data browser
;
#_database_code_PCD                      558325

# Entry summary

_chemical_formula_structural             'Au~5~ Mn~2~'
_chemical_formula_sum                    'Au5 Mn2'
_chemical_name_mineral                   ?
_chemical_compound_source                ?
_chemical_name_structure_type            Au~5~Mn~2~,mS14,12
_chemical_formula_weight                 1094.7

# Bibliographic data

_publ_section_title
'Antiferromagnetism of Ordered Au~5~Mn~2~'                                    
_journal_coden_ASTM                      JUPSAU
_journal_name_full                       'J. Phys. Soc. Jpn.'
_journal_year                            1968
_journal_volume                          24
_journal_page_first                      646
_journal_page_last                       ?
_journal_language                        English
loop_
 _publ_author_name
 _publ_author_address
'Inoue K.'
;
Kyoto University
Department of Metal Science and Technology
Kyoto / Kyoto
Japan
;
'Nakamura Y.'
;
Kyoto University
Department of Metal Science and Technology
Kyoto / Kyoto
Japan
;
'Yamamoto K.'
;
Osaka Women's University
Department of Environmental Science
Osaka / Osaka
Japan
;
'Maruyama S.'
;
Osaka Women's University
Department of Environmental Science
Osaka / Osaka
Japan
;

# Standardized crystallographic data

_cell_length_a                           9.188
_cell_length_b                           3.954
_cell_length_c                           6.479
_cell_angle_alpha                        90
_cell_angle_beta                         97.95
_cell_angle_gamma                        90
_cell_volume                             233.1
_cell_formula_units_Z                    2
_space_group_IT_number                   12
_space_group_name_H-M_alt                'C 1 2/m 1'
loop_
 _space_group_symop_id
 _space_group_symop_operation_xyz
 1 'x, y, z'
 2 '-x, -y, -z'
 3 '-x, y, -z'
 4 'x, -y, z'
 5 '1/2+x, 1/2+y, z'
 6 '1/2-x, 1/2-y, -z'
 7 '1/2-x, 1/2+y, -z'
 8 '1/2+x, 1/2-y, z'

# Atomic positions taken from type-defining entry

loop_
 _atom_type_symbol
 Au
 Mn
loop_
 _atom_site_label
 _atom_site_type_symbol
 _atom_site_symmetry_multiplicity
 _atom_site_Wyckoff_symbol
 _atom_site_fract_x
 _atom_site_fract_y
 _atom_site_fract_z
 _atom_site_occupancy
 Au1 Au 4 i 0.14286 0 0.42857 1
 Mn1 Mn 4 i 0.42857 0 0.28571 1
 Au2 Au 4 i 0.71429 0 0.14286 1
 Au3 Au 2 a 0 0 0 1


_exptl_crystal_colour                    ?
_exptl_crystal_density_meas              ?
_exptl_crystal_density_diffrn            15.60
_cell_measurement_temperature            ?
_cell_measurement_radiation              X-rays
_cell_measurement_reflns_used            ?
_diffrn_ambient_temperature              ?
_diffrn_measurement_device               'automatic diffractometer'
_diffrn_measurement_device_type          ?
_diffrn_radiation_type                   ?
_diffrn_reflns_number                    ?
_exptl_absorpt_coefficient_mu            ?
_exptl_absorpt_correction_type           ?
_computing_structure_solution            ?
_refine_ls_number_parameters             ?
_refine_ls_number_reflns                 ?
_refine_ls_R_factor_gt                   ?
_refine_ls_wR_factor_gt                  ?

# End of data set 558325


