##############################################################################
#                                                                            #
# Au-Cd            # AuCd3 rt                                      #  450699 #
#                                                                            #
##############################################################################
#                                                                            #
#                           Pearson's Crystal Data                           #
#      Crystal Structure Database for Inorganic Compounds (on DVD)           #
#                              Release 2017/18                               #
#                  Editors: Pierre Villars and Karin Cenzual                 #
#                                                                            #
#   Copyright (c) ASM International & Material Phases Data System (MPDS),    #
# Switzerland & National Institute for Materials Science (NIMS), Japan, 2017 #
#                   All rights reserved. Version 2017.08                     #
#                                                                            #
#   This copy of Pearson's Crystal Data is licensed to:                      #
#   University of Alberta, Chemistry Department, 1-5 Installations License         #
#                                                                            #
##############################################################################

data_450699
_audit_creation_date                     2017-12-01
_audit_creation_method
;
Pearson's Crystal Data browser
;
#_database_code_PCD                      450699

# Entry summary

_chemical_formula_structural             'Au Cd~3~'
_chemical_formula_sum                    'Au Cd3'
_chemical_name_mineral                   ?
_chemical_compound_source                ?
_chemical_name_structure_type            Cu~3~P,hP24,185
_chemical_formula_weight                 534.2
_chemical_melting_point                  778

# Bibliographic data

_publ_section_title                      'Kristallstruktur von AuCd~3~'
_journal_coden_ASTM                      JCOMAH
_journal_name_full                       'J. Less-Common Met.'
_journal_year                            1977
_journal_volume                          51
_journal_page_first                      225
_journal_page_last                       233
_journal_language                        German
loop_
 _publ_author_name
 _publ_author_address
'Alasafi K.M.'
;
Max Planck Society
Max Planck Institut f\"ur Metallforschung
Stuttgart
Germany
;
'Schubert K.'
;
Max Planck Society
Max Planck Institut f\"ur Metallforschung
Stuttgart
Germany
;

# Standardized crystallographic data

_cell_length_a                           8.147
_cell_length_b                           8.147
_cell_length_c                           8.511
_cell_angle_alpha                        90
_cell_angle_beta                         90
_cell_angle_gamma                        120
_cell_volume                             489.22
_cell_formula_units_Z                    6
_space_group_IT_number                   185
_space_group_name_H-M_alt                'P 63 c m'
loop_
 _space_group_symop_id
 _space_group_symop_operation_xyz
 1 'x, y, z'
 2 '-x+y, -x, z'
 3 '-x+y, y, 1/2+z'
 4 '-x, -x+y, z'
 5 '-x, -y, 1/2+z'
 6 '-y, -x, 1/2+z'
 7 '-y, x-y, z'
 8 'x, x-y, 1/2+z'
 9 'x-y, -y, z'
 10 'x-y, x, 1/2+z'
 11 'y, -x+y, 1/2+z'
 12 'y, x, z'
loop_
 _atom_type_symbol
 Au
 Cd
loop_
 _atom_site_label
 _atom_site_type_symbol
 _atom_site_symmetry_multiplicity
 _atom_site_Wyckoff_symbol
 _atom_site_fract_x
 _atom_site_fract_y
 _atom_site_fract_z
 _atom_site_occupancy
 Au Au 6 c 0.332 0 0.081 1
 Cd2 Cd 6 c 0.363 0 0.411 1
 Cd1 Cd 6 c 0.708 0 0.253 1
 Cd3 Cd 4 b 0.333333 0.666667 0.125 1
 Cd4 Cd 2 a 0 0 0.0 1


_exptl_crystal_colour                    ?
_exptl_crystal_density_meas              ?
_exptl_crystal_density_diffrn            10.88
_cell_measurement_temperature            ?
_cell_measurement_radiation              'X-rays, Cu Ka'
_cell_measurement_reflns_used            ?
_diffrn_ambient_temperature              ?
_diffrn_measurement_device               diffractometer
_diffrn_measurement_device_type          ?
_diffrn_radiation_type                   'X-rays, Mo Ka'
_diffrn_reflns_number                    382
_exptl_absorpt_coefficient_mu            ?
_exptl_absorpt_correction_type           ?
_computing_structure_solution            ?
_refine_ls_number_parameters             ?
_refine_ls_number_reflns                 ?
_refine_ls_R_factor_gt                   0.12
_refine_ls_wR_factor_gt                  ?

# Published diffraction lines

loop_
 _refln_index_h
 _refln_index_k
 _refln_index_l
 _refln_d_spacing
 _refln_intensity_meas
 0 0 2 0.329 5
 1 1 0 0.358 5
 1 1 1 0.44 5
 0 1 2 0.447 2
 1 1 2 0.684 4
 0 2 2 0.804 6
 1 2 1 0.914 5
 0 3 0 1.07 8
 1 1 3 1.093 8
 1 2 2 1.16 5
 0 0 4 1.312 3
 0 3 2 1.399 5
 2 2 0 1.43 4
 2 2 1 1.512 4
 1 3 1 1.632 3
 1 1 4 1.669 2
 2 2 2 1.758 2
 0 2 4 1.787 1
 1 2 4 2.145 2
 2 2 3 2.164 7
 2 3 1 2.363 3
 0 3 4 2.385 4
 1 1 5 2.404 2
 1 4 0 2.5 2
 1 4 1 2.592 5
 1 3 4 2.857 4
 1 2 5 2.881 2
 0 0 6 2.958 4
 3 3 0 3.216 6
 1 4 3 3.245 6
 0 5 2 3.312 5
 2 4 1 3.421 4
 2 2 5 3.46 2
 3 3 2 3.55 4
 1 3 5 3.584 3
 1 5 1 3.781 3
 1 4 4 3.824 3
 1 5 2 4.03 5
 0 6 0 4.293 4
 1 1 7 4.374 4

# End of data set 450699


