##############################################################################
#                                                                            #
# Au-Ce-Ge         # AuCeGe                                        #  311960 #
#                                                                            #
##############################################################################
#                                                                            #
#                           Pearson's Crystal Data                           #
#      Crystal Structure Database for Inorganic Compounds (on DVD)           #
#                              Release 2017/18                               #
#                  Editors: Pierre Villars and Karin Cenzual                 #
#                                                                            #
#   Copyright (c) ASM International & Material Phases Data System (MPDS),    #
# Switzerland & National Institute for Materials Science (NIMS), Japan, 2017 #
#                   All rights reserved. Version 2017.08                     #
#                                                                            #
#   This copy of Pearson's Crystal Data is licensed to:                      #
#   University of Alberta, Chemistry Department, 1-5 Installations License         #
#                                                                            #
##############################################################################

data_311960
_audit_creation_date                     2017-12-01
_audit_creation_method
;
Pearson's Crystal Data browser
;
#_database_code_PCD                      311960

# Entry summary

_chemical_formula_structural             'Au Ce Ge'
_chemical_formula_sum                    'Au Ce Ge'
_chemical_name_mineral                   ?
_chemical_compound_source                ?
_chemical_name_structure_type            LiGaGe,hP6,186
_chemical_formula_weight                 409.7

# Bibliographic data

_publ_section_title                      'Ferromagnetic ordering in CeAuGe'
_journal_coden_ASTM                      JMMMDC
_journal_name_full                       'J. Magn. Magn. Mater.'
_journal_year                            1996
_journal_volume                          152
_journal_page_first                      196
_journal_page_last                       200
_journal_language                        English
loop_
 _publ_author_name
 _publ_author_address
'P\"ottgen R.'
;
Max Planck Society
Max Planck Institut f\"ur Festk\"orperforschung
Stuttgart
Germany
;
'Borrmann H.'
;
Max Planck Society
Max Planck Institut f\"ur Festk\"orperforschung
Stuttgart
Germany
;
'Kremer R.K.'
;
Max Planck Society
Max Planck Institut f\"ur Festk\"orperforschung
Stuttgart
Germany
;

# Standardized crystallographic data

_cell_length_a                           4.4603
_cell_length_b                           4.4603
_cell_length_c                           7.936
_cell_angle_alpha                        90
_cell_angle_beta                         90
_cell_angle_gamma                        120
_cell_volume                             136.7
_cell_formula_units_Z                    2
_space_group_IT_number                   186
_space_group_name_H-M_alt                'P 63 m c'
loop_
 _space_group_symop_id
 _space_group_symop_operation_xyz
 1 'x, y, z'
 2 '-x+y, -x, z'
 3 '-x+y, y, z'
 4 '-x, -x+y, 1/2+z'
 5 '-x, -y, 1/2+z'
 6 '-y, -x, z'
 7 '-y, x-y, z'
 8 'x, x-y, z'
 9 'x-y, -y, 1/2+z'
 10 'x-y, x, 1/2+z'
 11 'y, -x+y, 1/2+z'
 12 'y, x, 1/2+z'
loop_
 _atom_type_symbol
 Au
 Ge
 Ce
loop_
 _atom_site_label
 _atom_site_type_symbol
 _atom_site_symmetry_multiplicity
 _atom_site_Wyckoff_symbol
 _atom_site_fract_x
 _atom_site_fract_y
 _atom_site_fract_z
 _atom_site_occupancy
 Au Au 2 b 0.333333 0.666667 0.2658 1
 Ge Ge 2 b 0.333333 0.666667 0.7247 1
 Ce Ce 2 a 0 0 0.0 1


_exptl_crystal_colour                    gray
_exptl_crystal_density_meas              ?
_exptl_crystal_density_diffrn            9.95
_cell_measurement_temperature            293
_cell_measurement_radiation              'X-rays, Ag Ka'
_cell_measurement_wavelength             0.56087
_cell_measurement_reflns_used            ?
_diffrn_ambient_temperature              293
_diffrn_measurement_device               'automatic diffractometer'
_diffrn_measurement_device_type          'Enraf-Nonius CAD4'
_diffrn_radiation_type                   'X-rays, Ag Ka'
_diffrn_radiation_wavelength             0.56087
_diffrn_reflns_number                    1775
_diffrn_reflns_theta_min                 4
_diffrn_reflns_theta_max                 25
_exptl_absorpt_coefficient_mu            43.4
_exptl_absorpt_correction_type           yes
_computing_structure_solution            'starting values from the literature'
_refine_ls_number_parameters             11
_refine_ls_number_reflns                 213
_refine_ls_R_factor_gt                   0.0213
_refine_ls_wR_factor_gt                  0.0413

# End of data set 311960


