##############################################################################
#                                                                            #
# Au-Ce-Ge         # AuCeGe                                        # 1520735 #
#                                                                            #
##############################################################################
#                                                                            #
#                           Pearson's Crystal Data                           #
#      Crystal Structure Database for Inorganic Compounds (on DVD)           #
#                              Release 2017/18                               #
#                  Editors: Pierre Villars and Karin Cenzual                 #
#                                                                            #
#   Copyright (c) ASM International & Material Phases Data System (MPDS),    #
# Switzerland & National Institute for Materials Science (NIMS), Japan, 2017 #
#                   All rights reserved. Version 2017.08                     #
#                                                                            #
#   This copy of Pearson's Crystal Data is licensed to:                      #
#   University of Alberta, Chemistry Department, 1-5 Installations License         #
#                                                                            #
##############################################################################

data_1520735
_audit_creation_date                     2017-12-05
_audit_creation_method
;
Pearson's Crystal Data browser
;
#_database_code_PCD                      1520735

# Entry summary

_chemical_formula_structural             'Au Ce Ge'
_chemical_formula_sum                    'Au Ce Ge'
_chemical_name_mineral                   ?
_chemical_compound_source                ?
_chemical_name_structure_type            NdPtSb,hP6,186
_chemical_formula_weight                 409.7

# Bibliographic data

_publ_section_title
'Structural phase transition of CeAuGe at higt pressure'                      
_journal_coden_ASTM                      ZEKRDZ
_journal_name_full                       'Z. Kristallogr.'
_journal_year                            2005
_journal_volume                          220
_journal_page_first                      122
_journal_page_last                       127
_journal_language                        English
loop_
 _publ_author_name
 _publ_author_address
'Brouskov V.'
;
Max Planck Society
Max Planck Institut f\"ur Chemische Physik Fester Stoffe
Dresden
Germany
;
'Hanfland M.'
;
European Synchrotron Radiation Facility (ESRF)
Grenoble
France
;
'P\"ottgen R.'
;
M\"unster Westf\"alische Wilhelm University
Institut f\"ur Anorganische und Analytische Chemie
M\"unster
Germany
;
'Schwarz U.'
;
Max Planck Society
Max Planck Institut f\"ur Chemische Physik Fester Stoffe
Dresden
Germany
;

# Standardized crystallographic data

_cell_length_a                           4.4555
_cell_length_b                           4.4555
_cell_length_c                           7.8994
_cell_angle_alpha                        90
_cell_angle_beta                         90
_cell_angle_gamma                        120
_cell_volume                             135.8
_cell_formula_units_Z                    2
_space_group_IT_number                   186
_space_group_name_H-M_alt                'P 63 m c'
loop_
 _space_group_symop_id
 _space_group_symop_operation_xyz
 1 'x, y, z'
 2 '-x+y, -x, z'
 3 '-x+y, y, z'
 4 '-x, -x+y, 1/2+z'
 5 '-x, -y, 1/2+z'
 6 '-y, -x, z'
 7 '-y, x-y, z'
 8 'x, x-y, z'
 9 'x-y, -y, 1/2+z'
 10 'x-y, x, 1/2+z'
 11 'y, -x+y, 1/2+z'
 12 'y, x, 1/2+z'
loop_
 _atom_type_symbol
 Au
 Ge
 Ce
loop_
 _atom_site_label
 _atom_site_type_symbol
 _atom_site_symmetry_multiplicity
 _atom_site_Wyckoff_symbol
 _atom_site_fract_x
 _atom_site_fract_y
 _atom_site_fract_z
 _atom_site_occupancy
 Au Au 2 b 0.333333 0.666667 0.2488 1
 Ge Ge 2 b 0.333333 0.666667 0.695 1
 Ce Ce 2 a 0 0 0.0 1


_exptl_crystal_colour                    ?
_exptl_crystal_density_meas              ?
_exptl_crystal_density_diffrn            10.02
_cell_measurement_temperature            ?
_cell_measurement_radiation              'X-rays, synchrotron'
_cell_measurement_wavelength             0.4171
_pd_proc_wavelength                      0.4171
_cell_measurement_reflns_used            ?
_diffrn_ambient_temperature              ?
_diffrn_measurement_device               'automatic diffractometer'
_diffrn_measurement_device_type
'France, Grenoble, European Synchrotron Radiation Facility ESRF, ID09A'       
_diffrn_radiation_type                   'X-rays, synchrotron'
_diffrn_radiation_wavelength             0.4171
_diffrn_reflns_number                    ?
_exptl_absorpt_coefficient_mu            ?
_exptl_absorpt_correction_type           ?
_computing_structure_solution            'starting values from the literature'
_refine_ls_number_parameters             ?
_refine_ls_number_reflns                 ?
_refine_ls_R_factor_gt                   ?
_refine_ls_wR_factor_gt                  ?
_pd_proc_ls_proof_R_factor               0.121
_pd_proc_ls_proof_wR_factor              ?
_refine_ls_R_I_factor                    0.071

# End of data set 1520735


