##############################################################################
#                                                                            #
# Au-F             # AuF3                                          #  541741 #
#                                                                            #
##############################################################################
#                                                                            #
#                           Pearson's Crystal Data                           #
#      Crystal Structure Database for Inorganic Compounds (on DVD)           #
#                              Release 2017/18                               #
#                  Editors: Pierre Villars and Karin Cenzual                 #
#                                                                            #
#   Copyright (c) ASM International & Material Phases Data System (MPDS),    #
# Switzerland & National Institute for Materials Science (NIMS), Japan, 2017 #
#                   All rights reserved. Version 2017.08                     #
#                                                                            #
#   This copy of Pearson's Crystal Data is licensed to:                      #
#   University of Alberta, Chemistry Department, 1-5 Installations License         #
#                                                                            #
##############################################################################

data_541741
_audit_creation_date                     2017-12-04
_audit_creation_method
;
Pearson's Crystal Data browser
;
#_database_code_PCD                      541741

# Entry summary

_chemical_formula_structural             'Au F~3~'
_chemical_formula_sum                    'Au F3'
_chemical_name_mineral                   ?
_chemical_compound_source                ?
_chemical_name_structure_type            AuF~3~,hP24,178
_chemical_formula_weight                 254.0

# Bibliographic data

_publ_section_title
'The Crystal Structure of Gold Trifluoride'                                   
_journal_coden_ASTM                      JCSIAP
_journal_name_full                       'J. Chem. Soc. A'
_journal_year                            1967
_journal_volume                          ?
_journal_page_first                      478
_journal_page_last                       482
_journal_language                        English
loop_
 _publ_author_name
 _publ_author_address
'Einstein F.W.B.'
;
Vancouver British Columbia University
Vancouver
Canada
;
'Rao P.R.'
;
Vancouver British Columbia University
Vancouver
Canada
;
'Trotter J.'
;
Vancouver British Columbia University
Vancouver
Canada
;
'Bartlett N.'
;
Vancouver British Columbia University
Vancouver
Canada
;

# Standardized crystallographic data

_cell_length_a                           5.149
_cell_length_b                           5.149
_cell_length_c                           16.26
_cell_angle_alpha                        90
_cell_angle_beta                         90
_cell_angle_gamma                        120
_cell_volume                             373.3
_cell_formula_units_Z                    6
_space_group_IT_number                   178
_space_group_name_H-M_alt                'P 61 2 2'
loop_
 _space_group_symop_id
 _space_group_symop_operation_xyz
 1 'x, y, z'
 2 '-x+y, -x, -1/3+z'
 3 '-x+y, y, 1/2-z'
 4 '-x, -x+y, -1/3-z'
 5 '-x, -y, 1/2+z'
 6 '-y, -x, -1/6-z'
 7 '-y, x-y, 1/3+z'
 8 'x, x-y, 1/6-z'
 9 'x-y, -y, -z'
 10 'x-y, x, 1/6+z'
 11 'y, -x+y, -1/6+z'
 12 'y, x, 1/3-z'
loop_
 _atom_type_symbol
 F
 Au
loop_
 _atom_site_label
 _atom_site_type_symbol
 _atom_site_symmetry_multiplicity
 _atom_site_Wyckoff_symbol
 _atom_site_fract_x
 _atom_site_fract_y
 _atom_site_fract_z
 _atom_site_occupancy
 F(2) F 12 c 0.5428 0.3243 0.4984 1
 Au Au 6 b 0.2412 0.4824 0.25 1
 F(1) F 6 a 0.1537 0 0 1


_exptl_crystal_colour                    golden
_exptl_crystal_density_meas              6.72
_exptl_crystal_density_diffrn            6.78
_cell_measurement_temperature            ?
_cell_measurement_radiation              'X-rays, Cu Ka'
_cell_measurement_reflns_used            ?
_diffrn_ambient_temperature              ?
_diffrn_measurement_device               'automatic diffractometer'
_diffrn_measurement_device_type          'General Electric XRD'
_diffrn_radiation_type                   'X-rays, Cu Ka'
_diffrn_reflns_number                    ?
_exptl_absorpt_coefficient_mu            133.5
_exptl_absorpt_correction_type           ?
_computing_structure_solution            'Patterson and Fourier synthesis'
_refine_ls_number_parameters             ?
_refine_ls_number_reflns                 ?
_refine_ls_R_factor_gt                   0.090
_refine_ls_wR_factor_gt                  ?

# End of data set 541741


