##############################################################################
#                                                                            #
# Au-Ni-Sn         # AuNiSn2 rt                                    # 1520901 #
#                                                                            #
##############################################################################
#                                                                            #
#                           Pearson's Crystal Data                           #
#      Crystal Structure Database for Inorganic Compounds (on DVD)           #
#                              Release 2017/18                               #
#                  Editors: Pierre Villars and Karin Cenzual                 #
#                                                                            #
#   Copyright (c) ASM International & Material Phases Data System (MPDS),    #
# Switzerland & National Institute for Materials Science (NIMS), Japan, 2017 #
#                   All rights reserved. Version 2017.08                     #
#                                                                            #
#   This copy of Pearson's Crystal Data is licensed to:                      #
#   University of Alberta, Chemistry Department, 1-5 Installations License         #
#                                                                            #
##############################################################################

data_1520901
_audit_creation_date                     2017-12-05
_audit_creation_method
;
Pearson's Crystal Data browser
;
#_database_code_PCD                      1520901

# Entry summary

_chemical_formula_structural             'Au Ni Sn~2~'
_chemical_formula_sum                    'Au Ni Sn2'
_chemical_name_mineral                   ?
_chemical_compound_source                ?
_chemical_name_structure_type            TlCdS~2~,hP4,187
_chemical_formula_weight                 493.0

# Bibliographic data

_publ_section_title
;
Low-Temperature Polyol Synthesis of AuCuSn~2~ and AuNiSn~2~: Using Solution Chemistry to Access Ternary Intermetallic Compounds as Nanocrystals
;
_journal_coden_ASTM                      JACSAT
_journal_name_full                       'J. Am. Chem. Soc.'
_journal_year                            2005
_journal_volume                          127
_journal_page_first                      7326
_journal_page_last                       7327
_journal_language                        English
loop_
 _publ_author_name
 _publ_author_address
'Leonard B.M.'
;
Texas College Station Agricultural and Mechanical University
Department of Chemistry
College Station
U.S.A. Texas
;
'Bhuvanesh N.S.P.'
;
Texas College Station Agricultural and Mechanical University
Department of Chemistry
College Station
U.S.A. Texas
;
'Schaak R.E.'
;
Texas College Station Agricultural and Mechanical University
Department of Chemistry
College Station
U.S.A. Texas
;

# Standardized crystallographic data

_cell_length_a                           4.093
_cell_length_b                           4.093
_cell_length_c                           5.301
_cell_angle_alpha                        90
_cell_angle_beta                         90
_cell_angle_gamma                        120
_cell_volume                             76.9
_cell_formula_units_Z                    1
_space_group_IT_number                   187
_space_group_name_H-M_alt                'P -6 m 2'
loop_
 _space_group_symop_id
 _space_group_symop_operation_xyz
 1 'x, y, z'
 2 '-x+y, -x, -z'
 3 '-x+y, -x, z'
 4 '-x+y, y, -z'
 5 '-x+y, y, z'
 6 '-y, -x, -z'
 7 '-y, -x, z'
 8 '-y, x-y, -z'
 9 '-y, x-y, z'
 10 'x, x-y, -z'
 11 'x, x-y, z'
 12 'x, y, -z'

# Atomic positions taken from type-defining entry

loop_
 _atom_type_symbol
 Sn
 Au
 Ni
loop_
 _atom_site_label
 _atom_site_type_symbol
 _atom_site_symmetry_multiplicity
 _atom_site_Wyckoff_symbol
 _atom_site_fract_x
 _atom_site_fract_y
 _atom_site_fract_z
 _atom_site_occupancy
 Sn1 Sn 2 i 0.666667 0.333333 0.25 1
 Au1 Au 1 d 0.333333 0.666667 0.5 1
 Ni1 Ni 1 a 0 0 0 1


_exptl_crystal_colour                    ?
_exptl_crystal_density_meas              ?
_exptl_crystal_density_diffrn            10.65
_cell_measurement_temperature            ?
_cell_measurement_radiation              'X-rays, Cu Ka'
_cell_measurement_reflns_used            ?
_diffrn_ambient_temperature              ?
_diffrn_measurement_device               'automatic diffractometer'
_diffrn_measurement_device_type          ?
_diffrn_radiation_type                   ?
_diffrn_reflns_number                    ?
_exptl_absorpt_coefficient_mu            ?
_exptl_absorpt_correction_type           ?
_computing_structure_solution            ?
_refine_ls_number_parameters             ?
_refine_ls_number_reflns                 ?
_refine_ls_R_factor_gt                   ?
_refine_ls_wR_factor_gt                  ?

# End of data set 1520901


