##############################################################################
#                                                                            #
# Au-Cl-S          # AuSCl5                                        #  543120 #
#                                                                            #
##############################################################################
#                                                                            #
#                           Pearson's Crystal Data                           #
#      Crystal Structure Database for Inorganic Compounds (on DVD)           #
#                              Release 2017/18                               #
#                  Editors: Pierre Villars and Karin Cenzual                 #
#                                                                            #
#   Copyright (c) ASM International & Material Phases Data System (MPDS),    #
# Switzerland & National Institute for Materials Science (NIMS), Japan, 2017 #
#                   All rights reserved. Version 2017.08                     #
#                                                                            #
#   This copy of Pearson's Crystal Data is licensed to:                      #
#   University of Alberta, Chemistry Department, 1-5 Installations License         #
#                                                                            #
##############################################################################

data_543120
_audit_creation_date                     2017-12-04
_audit_creation_method
;
Pearson's Crystal Data browser
;
#_database_code_PCD                      543120

# Entry summary

_chemical_formula_structural             'Au S Cl~5~'
_chemical_formula_sum                    'Au Cl5 S'
_chemical_name_mineral                   ?
_chemical_compound_source                ?
_chemical_name_structure_type            AuSCl~5~,mP28,14
_chemical_formula_weight                 406.3

# Bibliographic data

_publ_section_title
'The crystal structure of the product of the reaction of AuCl~3~ with SCl~2~' 
_journal_coden_ASTM                      RJICAQ
_journal_name_full                       'Russ. J. Inorg. Chem.'
_journal_year                            1991
_journal_volume                          36
_journal_page_first                      1423
_journal_page_last                       1425
_journal_language                        English
loop_
 _publ_author_name
 _publ_author_address
'Rybakov V.B.'
;
Moscow M.V. Lomonosov State University
Moscow
Russia
;
'Aslanov L.A.'
;
Moscow M.V. Lomonosov State University
Moscow
Russia
;
'Volkov S.V.'
;
Moscow M.V. Lomonosov State University
Moscow
Russia
;
'Fokina Z.A.'
;
Ukrainian Academy of Sciences
Vernadskii V.I. Institute of General and Inorganic Chemistry
Kiev
Ukraine
;
'Lapko V.F.'
;
Ukrainian Academy of Sciences
Vernadskii V.I. Institute of General and Inorganic Chemistry
Kiev
Ukraine
;

# Standardized crystallographic data

_cell_length_a                           8.067
_cell_length_b                           8.27
_cell_length_c                           12.8826
_cell_angle_alpha                        90
_cell_angle_beta                         115.876
_cell_angle_gamma                        90
_cell_volume                             773.3
_cell_formula_units_Z                    4
_space_group_IT_number                   14
_space_group_name_H-M_alt                'P 1 21/c 1'
loop_
 _space_group_symop_id
 _space_group_symop_operation_xyz
 1 'x, y, z'
 2 '-x, -y, -z'
 3 '-x, 1/2+y, 1/2-z'
 4 'x, 1/2-y, 1/2+z'
loop_
 _atom_type_symbol
 Cl
 Au
 S
loop_
 _atom_site_label
 _atom_site_type_symbol
 _atom_site_symmetry_multiplicity
 _atom_site_Wyckoff_symbol
 _atom_site_fract_x
 _atom_site_fract_y
 _atom_site_fract_z
 _atom_site_occupancy
 Cl2 Cl 4 e 0.0697 0.6083 0.2428 1
 Au Au 4 e 0.09213 0.16797 0.15543 1
 Cl1 Cl 4 e 0.1713 0.6575 0.5159 1
 S S 4 e 0.2348 0.2254 0.0368 1
 Cl4 Cl 4 e 0.2502 0.4649 0.051 1
 Cl3 Cl 4 e 0.3549 0.1938 0.3189 1
 Cl5 Cl 4 e 0.4981 0.1624 0.1162 1


_exptl_crystal_colour                    ?
_exptl_crystal_density_meas              ?
_exptl_crystal_density_diffrn            3.49
_cell_measurement_temperature            ?
_cell_measurement_radiation              'X-rays, Mo Ka'
_cell_measurement_reflns_used            ?
_diffrn_ambient_temperature              ?
_diffrn_measurement_device               'automatic diffractometer'
_diffrn_measurement_device_type          'Enraf-Nonius CAD4'
_diffrn_radiation_type                   'X-rays, Mo Ka'
_diffrn_reflns_number                    ?
_exptl_absorpt_coefficient_mu            ?
_exptl_absorpt_correction_type           ?
_computing_structure_solution            'Patterson and Fourier synthesis'
_refine_ls_number_parameters             ?
_refine_ls_number_reflns                 1359
_refine_ls_R_factor_gt                   0.038
_refine_ls_wR_factor_gt                  ?

# End of data set 543120


