##############################################################################
#                                                                            #
# Au-Se            # AuSe m                                        #  530149 #
#                                                                            #
##############################################################################
#                                                                            #
#                           Pearson's Crystal Data                           #
#      Crystal Structure Database for Inorganic Compounds (on DVD)           #
#                              Release 2017/18                               #
#                  Editors: Pierre Villars and Karin Cenzual                 #
#                                                                            #
#   Copyright (c) ASM International & Material Phases Data System (MPDS),    #
# Switzerland & National Institute for Materials Science (NIMS), Japan, 2017 #
#                   All rights reserved. Version 2017.08                     #
#                                                                            #
#   This copy of Pearson's Crystal Data is licensed to:                      #
#   University of Alberta, Chemistry Department, 1-5 Installations License         #
#                                                                            #
##############################################################################

data_530149
_audit_creation_date                     2017-12-01
_audit_creation_method
;
Pearson's Crystal Data browser
;
#_database_code_PCD                      530149

# Entry summary

_chemical_formula_structural             'Au Se'
_chemical_formula_sum                    'Au Se'
_chemical_name_mineral                   ?
_chemical_compound_source                ?
_chemical_name_structure_type            AuSe,mS8,12
_chemical_formula_weight                 275.9

# Bibliographic data

_publ_section_title
'The gold/selenium system and some gold seleno-tellurides'                    
_journal_coden_ASTM                      CJCHAG
_journal_name_full                       'Can. J. Chem.'
_journal_year                            1968
_journal_volume                          46
_journal_page_first                      2637
_journal_page_last                       2640
_journal_language                        English
loop_
 _publ_author_name
 _publ_author_address
'Cranton G.E.'
;
York University
Department of Chemistry
York
United Kingdom
;
'Heyding R.D.'
;
Kingston Queen's University
Department of Chemistry
Kingston
Canada
;

# Standardized crystallographic data

_cell_length_a                           8.35
_cell_length_b                           3.668
_cell_length_c                           6.27
_cell_angle_alpha                        90
_cell_angle_beta                         105.95
_cell_angle_gamma                        90
_cell_volume                             184.64
_cell_formula_units_Z                    4
_space_group_IT_number                   12
_space_group_name_H-M_alt                'C 1 2/m 1'
loop_
 _space_group_symop_id
 _space_group_symop_operation_xyz
 1 'x, y, z'
 2 '-x, -y, -z'
 3 '-x, y, -z'
 4 'x, -y, z'
 5 '1/2+x, 1/2+y, z'
 6 '1/2-x, 1/2-y, -z'
 7 '1/2-x, 1/2+y, -z'
 8 '1/2+x, 1/2-y, z'

# Atomic positions taken from type-defining entry

loop_
 _atom_type_symbol
 Se
 Au
loop_
 _atom_site_label
 _atom_site_type_symbol
 _atom_site_symmetry_multiplicity
 _atom_site_Wyckoff_symbol
 _atom_site_fract_x
 _atom_site_fract_y
 _atom_site_fract_z
 _atom_site_occupancy
 Se1 Se 4 i 0.162 0 0.232 1
 Au1 Au 2 c 0 0 0.5 1
 Au2 Au 2 b 0 0.5 0 1


_exptl_crystal_colour                    ?
_exptl_crystal_density_meas              10.3
_exptl_crystal_density_diffrn            9.93
_cell_measurement_temperature            ?
_cell_measurement_radiation              'X-rays, Cu Ka'
_cell_measurement_wavelength             1.5405
_pd_proc_wavelength                      1.5405
_cell_measurement_reflns_used            ?
_diffrn_ambient_temperature              ?
_diffrn_measurement_device               'Debye-Scherrer film'
_diffrn_measurement_device_type          ?
_diffrn_radiation_type                   ?
_diffrn_reflns_number                    ?
_exptl_absorpt_coefficient_mu            ?
_exptl_absorpt_correction_type           ?
_computing_structure_solution            ?
_refine_ls_number_parameters             ?
_refine_ls_number_reflns                 ?
_refine_ls_R_factor_gt                   ?
_refine_ls_wR_factor_gt                  ?

# End of data set 530149


