##############################################################################
#                                                                            #
# Al-Au-Ti         # AuTiAl                                        #  301898 #
#                                                                            #
##############################################################################
#                                                                            #
#                           Pearson's Crystal Data                           #
#      Crystal Structure Database for Inorganic Compounds (on DVD)           #
#                              Release 2017/18                               #
#                  Editors: Pierre Villars and Karin Cenzual                 #
#                                                                            #
#   Copyright (c) ASM International & Material Phases Data System (MPDS),    #
# Switzerland & National Institute for Materials Science (NIMS), Japan, 2017 #
#                   All rights reserved. Version 2017.08                     #
#                                                                            #
#   This copy of Pearson's Crystal Data is licensed to:                      #
#   University of Alberta, Chemistry Department, 1-5 Installations License         #
#                                                                            #
##############################################################################

data_301898
_audit_creation_date                     2017-12-01
_audit_creation_method
;
Pearson's Crystal Data browser
;
#_database_code_PCD                      301898

# Entry summary

_chemical_formula_structural             'Au Ti Al'
_chemical_formula_sum                    'Al Au Ti'
_chemical_name_mineral                   ?
_chemical_compound_source                ?
_chemical_name_structure_type            BeZrSi,hP6,194
_chemical_formula_weight                 271.8
_chemical_melting_point                  1453

# Bibliographic data

_publ_section_title
'Phase relationships in the ternary system Ti-Au-Al at 775 K'                 
_journal_coden_ASTM                      JCOMAH
_journal_name_full                       'J. Less-Common Met.'
_journal_year                            1987
_journal_volume                          134
_journal_page_first                      99
_journal_page_last                       107
_journal_language                        English
loop_
 _publ_author_name
 _publ_author_address
'Jorda J.L.'
;
Geneva University
D\'epartement de Physique de la Mati\`ere Condens\'ee
Geneva
Switzerland
;
'Muller J.'
;
Geneva University
D\'epartement de Physique de la Mati\`ere Condens\'ee
Geneva
Switzerland
;
'Braun H.F.'
;
Bayreuth University
Laboratorium f\"ur Experimentalphysik
Bayreuth
Germany
;
'Susz C.P.'
;
Usine Genevoise de D\'egroississage d'Or
Geneva
Switzerland
;

# Standardized crystallographic data

_cell_length_a                           4.4075
_cell_length_b                           4.4075
_cell_length_c                           5.829
_cell_angle_alpha                        90
_cell_angle_beta                         90
_cell_angle_gamma                        120
_cell_volume                             98.1
_cell_formula_units_Z                    2
_space_group_IT_number                   194
_space_group_name_H-M_alt                'P 63/m m c'
loop_
 _space_group_symop_id
 _space_group_symop_operation_xyz
 1 'x, y, z'
 2 '-x+y, -x, 1/2-z'
 3 '-x+y, -x, z'
 4 '-x+y, y, 1/2-z'
 5 '-x+y, y, z'
 6 '-x, -x+y, -z'
 7 '-x, -x+y, 1/2+z'
 8 '-x, -y, -z'
 9 '-x, -y, 1/2+z'
 10 '-y, -x, 1/2-z'
 11 '-y, -x, z'
 12 '-y, x-y, 1/2-z'
 13 '-y, x-y, z'
 14 'x, x-y, 1/2-z'
 15 'x, x-y, z'
 16 'x, y, 1/2-z'
 17 'x-y, -y, -z'
 18 'x-y, -y, 1/2+z'
 19 'x-y, x, -z'
 20 'x-y, x, 1/2+z'
 21 'y, -x+y, -z'
 22 'y, -x+y, 1/2+z'
 23 'y, x, -z'
 24 'y, x, 1/2+z'
loop_
 _atom_type_symbol
 Au
 Al
 Ti
loop_
 _atom_site_label
 _atom_site_type_symbol
 _atom_site_symmetry_multiplicity
 _atom_site_Wyckoff_symbol
 _atom_site_fract_x
 _atom_site_fract_y
 _atom_site_fract_z
 _atom_site_occupancy
 Au Au 2 d 0.333333 0.666667 0.75 1
 Al Al 2 c 0.333333 0.666667 0.25 1
 Ti Ti 2 a 0 0 0 1


_exptl_crystal_colour                    ?
_exptl_crystal_density_meas              ?
_exptl_crystal_density_diffrn            9.21
_cell_measurement_temperature            ?
_cell_measurement_radiation              'X-rays, Cu Ka'
_cell_measurement_reflns_used            ?
_diffrn_ambient_temperature              ?
_diffrn_measurement_device               'automatic diffractometer'
_diffrn_measurement_device_type          ?
_diffrn_radiation_type                   ?
_diffrn_reflns_number                    ?
_exptl_absorpt_coefficient_mu            ?
_exptl_absorpt_correction_type           ?
_computing_structure_solution            ?
_refine_ls_number_parameters             ?
_refine_ls_number_reflns                 ?
_refine_ls_R_factor_gt                   ?
_refine_ls_wR_factor_gt                  ?

# Published diffraction lines

loop_
 _refln_index_h
 _refln_index_k
 _refln_index_l
 _refln_d_spacing
 _refln_intensity_meas
 1 0 0 38.151 245
 1 0 1 31.935 1000
 0 0 2 29.231 240
 1 0 2 23.166 820
 1 1 0 22.034 897
 2 0 1 18.126 156
 1 1 2 17.583 307
 1 0 3 17.317 189
 2 0 2 15.962 356
 2 1 1 14 236
 2 1 2 12.92 197
 3 0 0 12.729 131
 1 1 4 12.154 295

# End of data set 301898


