##############################################################################
#                                                                            #
# Ba               # Ba hp4                                        # 1500033 #
#                                                                            #
##############################################################################
#                                                                            #
#                           Pearson's Crystal Data                           #
#      Crystal Structure Database for Inorganic Compounds (on DVD)           #
#                              Release 2017/18                               #
#                  Editors: Pierre Villars and Karin Cenzual                 #
#                                                                            #
#   Copyright (c) ASM International & Material Phases Data System (MPDS),    #
# Switzerland & National Institute for Materials Science (NIMS), Japan, 2017 #
#                   All rights reserved. Version 2017.08                     #
#                                                                            #
#   This copy of Pearson's Crystal Data is licensed to:                      #
#   University of Alberta, Chemistry Department, 1-5 Installations License         #
#                                                                            #
##############################################################################

data_1500033
_audit_creation_date                     2017-12-05
_audit_creation_method
;
Pearson's Crystal Data browser
;
#_database_code_PCD                      1500033

# Entry summary

_chemical_formula_structural             Ba
_chemical_formula_sum                    Ba
_chemical_name_mineral                   ?
_chemical_compound_source                ?
_chemical_name_structure_type            Mg,hP2,194
_chemical_formula_weight                 137.3

# Bibliographic data

_publ_section_title
'High-pressure structural study of barium to 90 GPa'                          
_journal_coden_ASTM                      PRBMDO
_journal_name_full
'Phys. Rev. B: Condens. Matter Mater. Phys.'                                  
_journal_year                            1994
_journal_volume                          50
_journal_page_first                      16238
_journal_page_last                       16246
_journal_language                        English
loop_
 _publ_author_name
 _publ_author_address
'Kenichi T.'
;
National Institute for Materials Science (NIMS)
Tsukuba / Ibaraki
Japan
;

# Standardized crystallographic data

_cell_length_a                           3.1035
_cell_length_b                           3.1035
_cell_length_c                           4.8778
_cell_angle_alpha                        90
_cell_angle_beta                         90
_cell_angle_gamma                        120
_cell_volume                             40.7
_cell_formula_units_Z                    2
_space_group_IT_number                   194
_space_group_name_H-M_alt                'P 63/m m c'
loop_
 _space_group_symop_id
 _space_group_symop_operation_xyz
 1 'x, y, z'
 2 '-x+y, -x, 1/2-z'
 3 '-x+y, -x, z'
 4 '-x+y, y, 1/2-z'
 5 '-x+y, y, z'
 6 '-x, -x+y, -z'
 7 '-x, -x+y, 1/2+z'
 8 '-x, -y, -z'
 9 '-x, -y, 1/2+z'
 10 '-y, -x, 1/2-z'
 11 '-y, -x, z'
 12 '-y, x-y, 1/2-z'
 13 '-y, x-y, z'
 14 'x, x-y, 1/2-z'
 15 'x, x-y, z'
 16 'x, y, 1/2-z'
 17 'x-y, -y, -z'
 18 'x-y, -y, 1/2+z'
 19 'x-y, x, -z'
 20 'x-y, x, 1/2+z'
 21 'y, -x+y, -z'
 22 'y, -x+y, 1/2+z'
 23 'y, x, -z'
 24 'y, x, 1/2+z'
loop_
 _atom_type_symbol
 Ba
loop_
 _atom_site_label
 _atom_site_type_symbol
 _atom_site_symmetry_multiplicity
 _atom_site_Wyckoff_symbol
 _atom_site_fract_x
 _atom_site_fract_y
 _atom_site_fract_z
 _atom_site_occupancy
 Ba Ba 2 c 0.333333 0.666667 0.25 1


_exptl_crystal_colour                    ?
_exptl_crystal_density_meas              ?
_exptl_crystal_density_diffrn            11.21
_cell_measurement_temperature            ?
_cell_measurement_pressure               5.3e+007
_cell_measurement_radiation              'X-rays, synchrotron'
_cell_measurement_wavelength             0.6888
_pd_proc_wavelength                      0.6888
_cell_measurement_reflns_used            ?
_diffrn_ambient_temperature              ?
_diffrn_measurement_device               film
_diffrn_measurement_device_type          ?
_diffrn_radiation_type                   ?
_diffrn_reflns_number                    ?
_exptl_absorpt_coefficient_mu            ?
_exptl_absorpt_correction_type           ?
_computing_structure_solution            ?
_refine_ls_number_parameters             ?
_refine_ls_number_reflns                 ?
_refine_ls_R_factor_gt                   ?
_refine_ls_wR_factor_gt                  ?

# Published diffraction lines

loop_
 _refln_index_h
 _refln_index_k
 _refln_index_l
 _refln_d_spacing
 _refln_intensity_meas
 ? ? ? 29.908 3
 1 0 0 26.859 19
 0 0 2 24.445 3
 1 0 1 23.538 100
 ? ? ? 21.101 2
 1 0 2 18.052 13
 1 1 0 15.519 17
 1 0 3 13.91 15
 2 0 0 13.432 5
 1 1 2 13.098 14
 2 0 1 12.958 9

# End of data set 1500033


