##############################################################################
#                                                                            #
# Ba-Ca-O-U        # Ba2CaUO6 rt                                   # 1530406 #
#                                                                            #
##############################################################################
#                                                                            #
#                           Pearson's Crystal Data                           #
#      Crystal Structure Database for Inorganic Compounds (on DVD)           #
#                              Release 2017/18                               #
#                  Editors: Pierre Villars and Karin Cenzual                 #
#                                                                            #
#   Copyright (c) ASM International & Material Phases Data System (MPDS),    #
# Switzerland & National Institute for Materials Science (NIMS), Japan, 2017 #
#                   All rights reserved. Version 2017.08                     #
#                                                                            #
#   This copy of Pearson's Crystal Data is licensed to:                      #
#   University of Alberta, Chemistry Department, 1-5 Installations License         #
#                                                                            #
##############################################################################

data_1530406
_audit_creation_date                     2017-12-05
_audit_creation_method
;
Pearson's Crystal Data browser
;
#_database_code_PCD                      1530406

# Entry summary

_chemical_formula_structural             'Ba~2~ Ca U O~6~'
_chemical_formula_sum                    'Ba2 Ca O6 U'
_chemical_name_mineral                   ?
_chemical_compound_source                ?
_chemical_name_structure_type            Ca(Ca~0.5~Nd~0.5~)~2~NbO~6~,mP20,14
_chemical_formula_weight                 648.8

# Bibliographic data

_publ_section_title
;
The role of \p-bonding on the high temperature structure of the double perovskites Ba~2~CaUO~6~ and BaSrCaUO~6~
;
_journal_coden_ASTM                      DTARAF
_journal_name_full                       'Dalton Trans.'
_journal_year                            2015
_journal_volume                          44
_journal_page_first                      16036
_journal_page_last                       16044
_journal_language                        English
loop_
 _publ_author_name
 _publ_author_address
'Reynolds E.'
;
Sydney University
School of Chemistry
Sydney
Australia
;
'Thorogood G.J.'
;
Australian Nuclear Science and Technology Organisation (ANSTO)
Bragg Institute
Kirrawee
Australia
;
'Avdeev M.'
;
Australian Nuclear Science and Technology Organisation (ANSTO)
Bragg Institute
Kirrawee
Australia
;
'Brand H.E.A.'
;
Australian Synchrotron
Clayton
Australia
;
'Gu Q.F.'
;
Australian Synchrotron
Clayton
Australia
;
'Kennedy B.J.'
;
Sydney University
School of Chemistry
Sydney
Australia
;

# Standardized crystallographic data

_cell_length_a                           6.1617
_cell_length_b                           6.1179
_cell_length_c                           10.6255
_cell_angle_alpha                        90
_cell_angle_beta                         125.542
_cell_angle_gamma                        90
_cell_volume                             325.92
_cell_formula_units_Z                    2
_space_group_IT_number                   14
_space_group_name_H-M_alt                'P 1 21/c 1'
loop_
 _space_group_symop_id
 _space_group_symop_operation_xyz
 1 'x, y, z'
 2 '-x, -y, -z'
 3 '-x, 1/2+y, 1/2-z'
 4 'x, 1/2-y, 1/2+z'
loop_
 _atom_type_symbol
 O
 Ba
 Ca
 U
loop_
 _atom_site_label
 _atom_site_type_symbol
 _atom_site_symmetry_multiplicity
 _atom_site_Wyckoff_symbol
 _atom_site_fract_x
 _atom_site_fract_y
 _atom_site_fract_z
 _atom_site_occupancy
 O1 O 4 e 0.1714 0.0035 0.2346 1
 O3 O 4 e 0.252 0.7381 0.037 1
 Ba Ba 4 e 0.2526 0.4886 0.2498 1
 O2 O 4 e 0.2809 0.2154 0.0321 1
 Ca Ca 2 d 0.5 0 0.5 1
 U U 2 a 0 0 0 1


_exptl_crystal_colour                    ?
_exptl_crystal_density_meas              ?
_exptl_crystal_density_diffrn            6.61
_cell_measurement_temperature            ?
_cell_measurement_radiation              ?
_cell_measurement_reflns_used            ?
_diffrn_ambient_temperature              298
_diffrn_measurement_device               'automatic diffractometer'
_diffrn_measurement_device_type
;
Australia, Lucas Heights, Australian Nuclear Science and Technology Organisation, OPAL reactor, ECHIDNA
;
_diffrn_radiation_type                   neutrons
_diffrn_radiation_wavelength             1.6215
_diffrn_reflns_number                    ?
_exptl_absorpt_coefficient_mu            ?
_exptl_absorpt_correction_type           ?
_computing_structure_solution            'starting values from the literature'
_refine_ls_number_parameters             ?
_refine_ls_number_reflns                 ?
_refine_ls_R_factor_gt                   ?
_refine_ls_wR_factor_gt                  ?
_pd_proc_ls_proof_R_factor               0.0542
_pd_proc_ls_proof_wR_factor              0.0699
_refine_ls_R_I_factor                    ?

# End of data set 1530406


