##############################################################################
#                                                                            #
# Ba-Eu-La-Nb-O    # Ba2LaEuxNbO6 mon                              # 1530466 #
#                                                                            #
##############################################################################
#                                                                            #
#                           Pearson's Crystal Data                           #
#      Crystal Structure Database for Inorganic Compounds (on DVD)           #
#                              Release 2017/18                               #
#                  Editors: Pierre Villars and Karin Cenzual                 #
#                                                                            #
#   Copyright (c) ASM International & Material Phases Data System (MPDS),    #
# Switzerland & National Institute for Materials Science (NIMS), Japan, 2017 #
#                   All rights reserved. Version 2017.08                     #
#                                                                            #
#   This copy of Pearson's Crystal Data is licensed to:                      #
#   University of Alberta, Chemistry Department, 1-5 Installations License         #
#                                                                            #
##############################################################################

data_1530466
_audit_creation_date                     2017-12-05
_audit_creation_method
;
Pearson's Crystal Data browser
;
#_database_code_PCD                      1530466

# Entry summary

_chemical_formula_structural             'Ba~2~ La Eu~x~ Nb O~6~'
_chemical_formula_sum                    'Ba2 La Nb O6'
_chemical_name_mineral                   ?
_chemical_compound_source                ?
_chemical_name_structure_type            Ba~2~NdBiO~6~,mS20,12
_chemical_formula_weight                 602.5

# Bibliographic data

_publ_section_title
;
Structural phase transitions and photoluminescence properties of Eu^3+^ doped Ca~(2-x)~Ba~x~LaNbO~6~ phosphors
;
_journal_coden_ASTM                      DTARAF
_journal_name_full                       'Dalton Trans.'
_journal_year                            2015
_journal_volume                          44
_journal_page_first                      18536
_journal_page_last                       18543
_journal_language                        English
loop_
 _publ_author_name
 _publ_author_address
'Zhu J.'
;
Beijing University of Science and Technology
School of Materials Science and Engineering
Beijing
China
;
'Xia Z.C.'
;
Beijing University of Science and Technology
School of Materials Science and Engineering
Beijing
China
;
'Zhang Y.'
;
Beijing China University of Geosciences
School of Materials Sciences and Technology
Beijing
China
;
'Molokeev M.S.'
;
Russian Academy of Sciences
L.V. Kirenskii Institute of Physics
Krasnoyarsk
Russia
;
'Liu Q.'
;
Beijing University of Science and Technology
School of Materials Science and Engineering
Beijing
China
;

# Standardized crystallographic data

_cell_length_a                           10.4353
_cell_length_b                           6.0588
_cell_length_c                           6.0309
_cell_angle_alpha                        90
_cell_angle_beta                         125.062
_cell_angle_gamma                        90
_cell_volume                             312.1
_cell_formula_units_Z                    2
_space_group_IT_number                   12
_space_group_name_H-M_alt                'C 1 2/m 1'
loop_
 _space_group_symop_id
 _space_group_symop_operation_xyz
 1 'x, y, z'
 2 '-x, -y, -z'
 3 '-x, y, -z'
 4 'x, -y, z'
 5 '1/2+x, 1/2+y, z'
 6 '1/2-x, 1/2-y, -z'
 7 '1/2-x, 1/2+y, -z'
 8 '1/2+x, 1/2-y, z'

# Atomic positions taken from type-defining entry

loop_
 _atom_type_symbol
 O
 Ba
 Nb
 La
loop_
 _atom_site_label
 _atom_site_type_symbol
 _atom_site_symmetry_multiplicity
 _atom_site_Wyckoff_symbol
 _atom_site_fract_x
 _atom_site_fract_y
 _atom_site_fract_z
 _atom_site_occupancy
 O1 O 8 j 0.0315 0.2596 0.2953 1
 Ba1 Ba 4 i 0.2489 0 0.7457 1
 O2 O 4 i 0.2627 0 0.2024 1
 Nb1 Nb 2 d 0 0.5 0.5 1
 La1 La 2 a 0 0 0 1


_exptl_crystal_colour                    ?
_exptl_crystal_density_meas              ?
_exptl_crystal_density_diffrn            6.41
_cell_measurement_temperature            ?
_cell_measurement_radiation              'X-rays, Cu Ka'
_cell_measurement_wavelength             1.5406
_pd_proc_wavelength                      1.5406
_cell_measurement_reflns_used            ?
_diffrn_ambient_temperature              ?
_diffrn_measurement_device               'automatic diffractometer'
_diffrn_measurement_device_type          ?
_diffrn_radiation_type                   ?
_diffrn_reflns_number                    ?
_exptl_absorpt_coefficient_mu            ?
_exptl_absorpt_correction_type           ?
_computing_structure_solution            ?
_refine_ls_number_parameters             ?
_refine_ls_number_reflns                 ?
_refine_ls_R_factor_gt                   ?
_refine_ls_wR_factor_gt                  ?

# End of data set 1530466


