##############################################################################
#                                                                            #
# Ba-Cl-F-Mn-Ni    # Ba2MnNiClF7                                   # 1101166 #
#                                                                            #
##############################################################################
#                                                                            #
#                           Pearson's Crystal Data                           #
#      Crystal Structure Database for Inorganic Compounds (on DVD)           #
#                              Release 2017/18                               #
#                  Editors: Pierre Villars and Karin Cenzual                 #
#                                                                            #
#   Copyright (c) ASM International & Material Phases Data System (MPDS),    #
# Switzerland & National Institute for Materials Science (NIMS), Japan, 2017 #
#                   All rights reserved. Version 2017.08                     #
#                                                                            #
#   This copy of Pearson's Crystal Data is licensed to:                      #
#   University of Alberta, Chemistry Department, 1-5 Installations License         #
#                                                                            #
##############################################################################

data_1101166
_audit_creation_date                     2017-12-04
_audit_creation_method
;
Pearson's Crystal Data browser
;
#_database_code_PCD                      1101166

# Entry summary

_chemical_formula_structural             'Ba~2~ Mn Ni Cl F~7~'
_chemical_formula_sum                    'Ba2 Cl F7 Mn Ni'
_chemical_name_mineral                   ?
_chemical_compound_source                ?
_chemical_name_structure_type            Ba~2~Zn~2~ClF~7~,mP24,11
_chemical_formula_weight                 556.7

# Bibliographic data

_publ_section_title
;
Synthesis, Structural Study, and Magnetic Behavior of a New Chlorofluoride Family: Ba~2~M~2~F~7~Cl and Ba~2~MM'F~7~Cl (M, M'= Mn^2+^, Fe^2+^, Co^2+^, Ni^2+^, Zn^2+^)
;
_journal_coden_ASTM                      JSSCBI
_journal_name_full                       'J. Solid State Chem.'
_journal_year                            1995
_journal_volume                          115
_journal_page_first                      98
_journal_page_last                       111
_journal_language                        English
loop_
 _publ_author_name
 _publ_author_address
'Maguer J.J.'
;
Le Mans Maine University
Laboratoire des Fluorures
Le Mans
France
;
'Courbion G.'
;
Le Mans Maine University
Laboratoire des Fluorures
Le Mans
France
;
'Schriewer P\"ottgen M.S.'
;
M\"unster Westf\"alische Wilhelm University
Institut f\"ur Anorganische Chemie
M\"unster
Germany
;
'Fompeyrine J.'
;
Talence Bordeaux I University
Laboratoire de Chimie du Solide
Talence
France
;
'Darriet J.'
;
Talence Bordeaux I University
Laboratoire de Chimie du Solide
Talence
France
;

# Standardized crystallographic data

_cell_length_a                           7.766
_cell_length_b                           5.844
_cell_length_c                           8.932
_cell_angle_alpha                        90
_cell_angle_beta                         106.64
_cell_angle_gamma                        90
_cell_volume                             388.4
_cell_formula_units_Z                    2
_space_group_IT_number                   11
_space_group_name_H-M_alt                'P 1 21/m 1'
loop_
 _space_group_symop_id
 _space_group_symop_operation_xyz
 1 'x, y, z'
 2 '-x, -y, -z'
 3 '-x, 1/2+y, -z'
 4 'x, 1/2-y, z'
loop_
 _atom_type_symbol
 F
 Cl
 Mn
 Ni
 Ba
loop_
 _atom_site_label
 _atom_site_type_symbol
 _atom_site_symmetry_multiplicity
 _atom_site_Wyckoff_symbol
 _atom_site_fract_x
 _atom_site_fract_y
 _atom_site_fract_z
 _atom_site_occupancy
 F2 F 4 f -0.025 0.4587 0.323 1
 F1 F 4 f 0.3595 0.007 0.3362 1
 F3 F 4 f 0.6342 0.4903 0.1571 1
 Cl Cl 2 e 0.1182 0.25 0.0294 1
 Mn Mn 2 e 0.1669 0.25 0.7642 1
 Ni Ni 2 e 0.1864 0.25 0.3215 1
 F4 F 2 e 0.2533 0.25 0.5568 1
 Ba1 Ba 2 e 0.6715 0.25 0.9149 1
 Ba2 Ba 2 e 0.6866 0.25 0.4231 1


_exptl_crystal_colour                    ?
_exptl_crystal_density_meas              ?
_exptl_crystal_density_diffrn            4.76
_cell_measurement_temperature            300
_cell_measurement_radiation              'X-rays, Cu Ka'
_cell_measurement_reflns_used            ?
_diffrn_ambient_temperature              300
_diffrn_measurement_device               'automatic diffractometer'
_diffrn_measurement_device_type          'Siemens D501'
_diffrn_radiation_type                   'X-rays, Cu Ka'
_diffrn_reflns_number                    ?
_diffrn_reflns_theta_min                 3.5
_diffrn_reflns_theta_max                 65
_pd_proc_2theta_range_min                7
_pd_proc_2theta_range_max                130
_exptl_absorpt_coefficient_mu            ?
_exptl_absorpt_correction_type           ?
_computing_structure_solution            'starting values from the literature'
_refine_ls_number_parameters             46
_refine_ls_number_reflns                 1493
_refine_ls_R_factor_gt                   ?
_refine_ls_wR_factor_gt                  ?
_pd_proc_ls_proof_R_factor               0.0914
_pd_proc_ls_proof_wR_factor              0.1078
_refine_ls_R_I_factor                    0.0539

# End of data set 1101166


