##############################################################################
#                                                                            #
# Ba-Nb-Nd-O       # Ba2NdNbO6                                     #  546805 #
#                                                                            #
##############################################################################
#                                                                            #
#                           Pearson's Crystal Data                           #
#      Crystal Structure Database for Inorganic Compounds (on DVD)           #
#                              Release 2017/18                               #
#                  Editors: Pierre Villars and Karin Cenzual                 #
#                                                                            #
#   Copyright (c) ASM International & Material Phases Data System (MPDS),    #
# Switzerland & National Institute for Materials Science (NIMS), Japan, 2017 #
#                   All rights reserved. Version 2017.08                     #
#                                                                            #
#   This copy of Pearson's Crystal Data is licensed to:                      #
#   University of Alberta, Chemistry Department, 1-5 Installations License         #
#                                                                            #
##############################################################################

data_546805
_audit_creation_date                     2017-12-04
_audit_creation_method
;
Pearson's Crystal Data browser
;
#_database_code_PCD                      546805

# Entry summary

_chemical_formula_structural             'Ba~2~ Nd Nb O~6~'
_chemical_formula_sum                    'Ba2 Nb Nd O6'
_chemical_name_mineral                   ?
_chemical_compound_source                ?
_chemical_name_structure_type            Ca(Ca~0.5~Nd~0.5~)~2~NbO~6~,mP20,14
_chemical_formula_weight                 607.8

# Bibliographic data

_publ_section_title
'Unit Cell Parameters of Ba~2~MEO~6~ (ME= Nb, Ta)'                            
_journal_coden_ASTM                      RJICAQ
_journal_name_full                       'Russ. J. Inorg. Chem.'
_journal_year                            1982
_journal_volume                          27
_journal_page_first                      1208
_journal_page_last                       1209
_journal_language                        English
loop_
 _publ_author_name
 _publ_author_address
'Evdokimov A.A.'
;
Russian Academy of Sciences
Institute of Radiotechnology, Electronics and Automation
Moscow
Russia
;
'Men'shenina N.F.'
;
Moscow Institute of Radiotechnology, Electronics and Automation
Moscow
Russia
;

# Standardized crystallographic data

_cell_length_a                           6.075
_cell_length_b                           6.044
_cell_length_c                           10.4704
_cell_angle_alpha                        90
_cell_angle_beta                         125.435
_cell_angle_gamma                        90
_cell_volume                             313.2
_cell_formula_units_Z                    2
_space_group_IT_number                   14
_space_group_name_H-M_alt                'P 1 21/c 1'
loop_
 _space_group_symop_id
 _space_group_symop_operation_xyz
 1 'x, y, z'
 2 '-x, -y, -z'
 3 '-x, 1/2+y, 1/2-z'
 4 'x, 1/2-y, 1/2+z'

# Atomic positions taken from type-defining entry

loop_
 _atom_type_symbol
 O
 Ba
 Nb
 Nd
loop_
 _atom_site_label
 _atom_site_type_symbol
 _atom_site_symmetry_multiplicity
 _atom_site_Wyckoff_symbol
 _atom_site_fract_x
 _atom_site_fract_y
 _atom_site_fract_z
 _atom_site_occupancy
 O1 O 4 e 0.1131 0.056 0.2293 1
 O2 O 4 e 0.2412 0.7163 0.0711 1
 Ba1 Ba 4 e 0.2685 0.4422 0.2537 1
 O3 O 4 e 0.3422 0.1761 0.0525 1
 Nb1 Nb 2 d 0.5 0 0.5 1
 Nd1 Nd 2 a 0 0 0 1


_exptl_crystal_colour                    ?
_exptl_crystal_density_meas              ?
_exptl_crystal_density_diffrn            6.44
_cell_measurement_temperature            ?
_cell_measurement_radiation              'X-rays, Cu Ka'
_cell_measurement_reflns_used            ?
_diffrn_ambient_temperature              ?
_diffrn_measurement_device               film
_diffrn_measurement_device_type          ?
_diffrn_radiation_type                   ?
_diffrn_reflns_number                    ?
_exptl_absorpt_coefficient_mu            ?
_exptl_absorpt_correction_type           ?
_computing_structure_solution            ?
_refine_ls_number_parameters             ?
_refine_ls_number_reflns                 ?
_refine_ls_R_factor_gt                   ?
_refine_ls_wR_factor_gt                  ?

# End of data set 546805


