##############################################################################
#                                                                            #
# Ba-O-Pr-Ru       # Ba2PrRuO6 mon                                 # 1520824 #
#                                                                            #
##############################################################################
#                                                                            #
#                           Pearson's Crystal Data                           #
#      Crystal Structure Database for Inorganic Compounds (on DVD)           #
#                              Release 2017/18                               #
#                  Editors: Pierre Villars and Karin Cenzual                 #
#                                                                            #
#   Copyright (c) ASM International & Material Phases Data System (MPDS),    #
# Switzerland & National Institute for Materials Science (NIMS), Japan, 2017 #
#                   All rights reserved. Version 2017.08                     #
#                                                                            #
#   This copy of Pearson's Crystal Data is licensed to:                      #
#   University of Alberta, Chemistry Department, 1-5 Installations License         #
#                                                                            #
##############################################################################

data_1520824
_audit_creation_date                     2017-12-05
_audit_creation_method
;
Pearson's Crystal Data browser
;
#_database_code_PCD                      1520824

# Entry summary

_chemical_formula_structural             'Ba~2~ Pr Ru O~6~'
_chemical_formula_sum                    'Ba2 O6 Pr Ru'
_chemical_name_mineral                   ?
_chemical_compound_source                ?
_chemical_name_structure_type            Ca(Ca~0.5~Nd~0.5~)~2~NbO~6~,mP20,14
_chemical_formula_weight                 612.6

# Bibliographic data

_publ_section_title
;
Study of the magnetic interactions in Ba~2~PrRu~1-x~Cu~x~O~6~ using neutron powder diffraction
;
_journal_coden_ASTM                      JMACEP
_journal_name_full                       'J. Mater. Chem.'
_journal_year                            2005
_journal_volume                          15
_journal_page_first                      1375
_journal_page_last                       1383
_journal_language                        English
loop_
 _publ_author_name
 _publ_author_address
'Parkinson N.G.'
;
Durham University
Department of Chemistry
Durham
United Kingdom
;
'Hatton P.D.'
;
Durham University
Department of Chemistry
Durham
United Kingdom
;
'Howard J.A.K.'
;
Durham University
Department of Chemistry
Durham
United Kingdom
;
'Giblin S.R.'
;
Durham University
Department of Physics
Durham
United Kingdom
;
'Terry I.'
;
Durham University
Department of Physics
Durham
United Kingdom
;
'Ritter C.'
;
Grenoble Laue-Langevin Institute
Grenoble
France
;
'Mok B.H.'
;
Hsinchu Tsing Hua National University
Department of Physics and Materials Science Center
Hsinchu
Taiwan
;
'Wu M.K.'
;
Hsinchu Tsing Hua National University
Department of Physics and Materials Science Center
Hsinchu
Taiwan
;

# Standardized crystallographic data

_cell_length_a                           5.9625
_cell_length_b                           5.9675
_cell_length_c                           10.3265
_cell_angle_alpha                        90
_cell_angle_beta                         125.048
_cell_angle_gamma                        90
_cell_volume                             300.8
_cell_formula_units_Z                    2
_space_group_IT_number                   14
_space_group_name_H-M_alt                'P 1 21/c 1'
loop_
 _space_group_symop_id
 _space_group_symop_operation_xyz
 1 'x, y, z'
 2 '-x, -y, -z'
 3 '-x, 1/2+y, 1/2-z'
 4 'x, 1/2-y, 1/2+z'
loop_
 _atom_type_symbol
 O
 Ba
 Pr
 Ru
loop_
 _atom_site_label
 _atom_site_type_symbol
 _atom_site_symmetry_multiplicity
 _atom_site_Wyckoff_symbol
 _atom_site_fract_x
 _atom_site_fract_y
 _atom_site_fract_z
 _atom_site_occupancy
 O3 O 4 e 0.199 -0.003 0.23 1
 O2 O 4 e 0.252 0.77 0.009 1
 Ba Ba 4 e 0.256 0.493 0.252 1
 O1 O 4 e 0.259 0.21 0.018 1
 Pr Pr 2 d 0.5 0 0.5 1
 Ru Ru 2 a 0 0 0 1


_exptl_crystal_colour                    ?
_exptl_crystal_density_meas              ?
_exptl_crystal_density_diffrn            6.76
_cell_measurement_temperature            150
_cell_measurement_radiation              neutrons
_cell_measurement_wavelength             1.904
_pd_proc_wavelength                      1.904
_cell_measurement_reflns_used            ?
_diffrn_ambient_temperature              150
_diffrn_measurement_device               'automatic diffractometer'
_diffrn_measurement_device_type
'France, Grenoble, Institut Laue-Langevin ILL, D1A'                           
_diffrn_radiation_type                   neutrons
_diffrn_radiation_wavelength             1.904
_diffrn_reflns_number                    ?
_exptl_absorpt_coefficient_mu            ?
_exptl_absorpt_correction_type           ?
_computing_structure_solution            'starting values from the literature'
_refine_ls_number_parameters             ?
_refine_ls_number_reflns                 ?
_refine_ls_R_factor_gt                   ?
_refine_ls_wR_factor_gt                  ?
_pd_proc_ls_proof_R_factor               0.0532
_pd_proc_ls_proof_wR_factor              0.0711
_refine_ls_R_I_factor                    ?

# End of data set 1520824


