##############################################################################
#                                                                            #
# Ba-S-Sn          # Ba2SnS4 rt                                    #  542517 #
#                                                                            #
##############################################################################
#                                                                            #
#                           Pearson's Crystal Data                           #
#      Crystal Structure Database for Inorganic Compounds (on DVD)           #
#                              Release 2017/18                               #
#                  Editors: Pierre Villars and Karin Cenzual                 #
#                                                                            #
#   Copyright (c) ASM International & Material Phases Data System (MPDS),    #
# Switzerland & National Institute for Materials Science (NIMS), Japan, 2017 #
#                   All rights reserved. Version 2017.08                     #
#                                                                            #
#   This copy of Pearson's Crystal Data is licensed to:                      #
#   University of Alberta, Chemistry Department, 1-5 Installations License         #
#                                                                            #
##############################################################################

data_542517
_audit_creation_date                     2017-12-04
_audit_creation_method
;
Pearson's Crystal Data browser
;
#_database_code_PCD                      542517

# Entry summary

_chemical_formula_structural             'Ba~2~ Sn S~4~'
_chemical_formula_sum                    'Ba2 S4 Sn'
_chemical_name_mineral                   ?
_chemical_compound_source                ?
_chemical_name_structure_type            Ba~2~SnS~4~,mP28,14
_chemical_formula_weight                 521.6

# Bibliographic data

_publ_section_title
;
Etude de la t\'etracoordination de l'\'etain dans deux orthothiostannates: Na~4~SnS~4~ et Ba~2~SnS~4~ (\a)
;
_journal_coden_ASTM                      JSSCBI
_journal_name_full                       'J. Solid State Chem.'
_journal_year                            1975
_journal_volume                          14
_journal_page_first                      319
_journal_page_last                       327
_journal_language                        French
loop_
 _publ_author_name
 _publ_author_address
'Jumas J.C.'
;
Montpellier Languedoc University of Science and Technology
Laboratoire de Chimie Min\'erale Appliqu\'ee
Montpellier
France
;
'Philippot E.'
;
Montpellier Languedoc University of Science and Technology
Laboratoire de Chimie Min\'erale Appliqu\'ee
Montpellier
France
;
'Vermot Gaud Daniel F.'
;
Montpellier Languedoc University of Science and Technology
Laboratoire de Chimie Min\'erale Appliqu\'ee
Montpellier
France
;
'Ribes M.'
;
Montpellier Languedoc University of Science and Technology
Laboratoire de Chimie Min\'erale Appliqu\'ee
Montpellier
France
;
'Maurin M.'
;
Montpellier Languedoc University of Science and Technology
Laboratoire de Chimie Min\'erale Appliqu\'ee
Montpellier
France
;

# Standardized crystallographic data

_cell_length_a                           8.481
_cell_length_b                           8.526
_cell_length_c                           12.28
_cell_angle_alpha                        90
_cell_angle_beta                         112.97
_cell_angle_gamma                        90
_cell_volume                             817.5
_cell_formula_units_Z                    4
_space_group_IT_number                   14
_space_group_name_H-M_alt                'P 1 21/c 1'
loop_
 _space_group_symop_id
 _space_group_symop_operation_xyz
 1 'x, y, z'
 2 '-x, -y, -z'
 3 '-x, 1/2+y, 1/2-z'
 4 'x, 1/2-y, 1/2+z'
loop_
 _atom_type_symbol
 S
 Ba
 Sn
loop_
 _atom_site_label
 _atom_site_type_symbol
 _atom_site_symmetry_multiplicity
 _atom_site_Wyckoff_symbol
 _atom_site_fract_x
 _atom_site_fract_y
 _atom_site_fract_z
 _atom_site_occupancy
 S(4) S 4 e 0.0721 0.1922 0.0981 1
 Ba(2) Ba 4 e 0.07694 0.37578 0.33611 1
 Sn Sn 4 e 0.20005 0.68794 0.00946 1
 S(2) S 4 e 0.2291 0.6016 0.2047 1
 S(1) S 4 e 0.2537 0.0154 0.3922 1
 Ba(1) Ba 4 e 0.4587 0.30611 0.14948 1
 S(3) S 4 e 0.587 0.3824 0.4447 1


_exptl_crystal_colour                    ?
_exptl_crystal_density_meas              4.09
_exptl_crystal_density_diffrn            4.24
_cell_measurement_temperature            ?
_cell_measurement_radiation              'X-rays, Mo Ka'
_cell_measurement_wavelength             0.71069
_cell_measurement_reflns_used            ?
_diffrn_ambient_temperature              ?
_diffrn_measurement_device               'automatic diffractometer'
_diffrn_measurement_device_type          Syntex
_diffrn_radiation_type                   'X-rays, Mo Ka'
_diffrn_radiation_wavelength             0.71069
_diffrn_reflns_number                    ?
_exptl_absorpt_coefficient_mu            13.7
_exptl_absorpt_correction_type           ?
_computing_structure_solution            'direct methods, Fourier synthesis'
_refine_ls_number_parameters             ?
_refine_ls_number_reflns                 1608
_refine_ls_R_factor_gt                   0.036
_refine_ls_wR_factor_gt                  ?

# End of data set 542517


