##############################################################################
#                                                                            #
# Ba-Se-Sn         # Ba2SnSe4                                      # 1530528 #
#                                                                            #
##############################################################################
#                                                                            #
#                           Pearson's Crystal Data                           #
#      Crystal Structure Database for Inorganic Compounds (on DVD)           #
#                              Release 2017/18                               #
#                  Editors: Pierre Villars and Karin Cenzual                 #
#                                                                            #
#   Copyright (c) ASM International & Material Phases Data System (MPDS),    #
# Switzerland & National Institute for Materials Science (NIMS), Japan, 2017 #
#                   All rights reserved. Version 2017.08                     #
#                                                                            #
#   This copy of Pearson's Crystal Data is licensed to:                      #
#   University of Alberta, Chemistry Department, 1-5 Installations License         #
#                                                                            #
##############################################################################

data_1530528
_audit_creation_date                     2017-12-05
_audit_creation_method
;
Pearson's Crystal Data browser
;
#_database_code_PCD                      1530528

# Entry summary

_chemical_formula_structural             'Ba~2~ Sn Se~4~'
_chemical_formula_sum                    'Ba2 Se4 Sn'
_chemical_name_mineral                   ?
_chemical_compound_source                ?
_chemical_name_structure_type            Ba~2~SnS~4~,mP28,14
_chemical_formula_weight                 709.2

# Bibliographic data

_publ_section_title
;
An investigation of new infrared nonlinear optical material: BaCdSnSe~4~, and three new related centrosymmetric compounds: Ba~2~SnSe~4~, Mg~2~GeSe~4~, and Ba~2~Ge~2~S~6~
;
_journal_coden_ASTM                      DTARAF
_journal_name_full                       'Dalton Trans.'
_journal_year                            2015
_journal_volume                          44
_journal_page_first                      19856
_journal_page_last                       19864
_journal_language                        English
loop_
 _publ_author_name
 _publ_author_address
'Wu K.'
;
Chinese Academy of Sciences
Xinjiang Technical Institute of Physics and Chemistry
Urumqi / Xinjiang
China
;
'Su X.'
;
Chinese Academy of Sciences
Xinjiang Technical Institute of Physics and Chemistry
Urumqi / Xinjiang
China
;
'Yang Z.'
;
Chinese Academy of Sciences
Xinjiang Technical Institute of Physics and Chemistry
Urumqi / Xinjiang
China
;
'Pan S.'
;
Chinese Academy of Sciences
Xinjiang Technical Institute of Physics and Chemistry
Urumqi / Xinjiang
China
;

# Standardized crystallographic data

_cell_length_a                           8.5819
_cell_length_b                           9.2554
_cell_length_c                           12.46
_cell_angle_alpha                        90
_cell_angle_beta                         114.276
_cell_angle_gamma                        90
_cell_volume                             902.2
_cell_formula_units_Z                    4
_space_group_IT_number                   14
_space_group_name_H-M_alt                'P 1 21/c 1'
loop_
 _space_group_symop_id
 _space_group_symop_operation_xyz
 1 'x, y, z'
 2 '-x, -y, -z'
 3 '-x, 1/2+y, 1/2-z'
 4 'x, 1/2-y, 1/2+z'
loop_
 _atom_type_symbol
 Se
 Ba
 Sn
loop_
 _atom_site_label
 _atom_site_type_symbol
 _atom_site_symmetry_multiplicity
 _atom_site_Wyckoff_symbol
 _atom_site_fract_x
 _atom_site_fract_y
 _atom_site_fract_z
 _atom_site_occupancy
 Se3 Se 4 e 0.09046 0.18958 0.10664 1
 Ba1 Ba 4 e 0.09452 0.38278 0.34414 1
 Sn1 Sn 4 e 0.19348 0.68609 0.00674 1
 Se1 Se 4 e 0.23706 0.61703 0.21202 1
 Se2 Se 4 e 0.23766 0.02126 0.39081 1
 Ba2 Ba 4 e 0.46629 0.3469 0.15916 1
 Se4 Se 4 e 0.57761 0.37085 0.45674 1


_exptl_crystal_colour                    red
_exptl_crystal_density_meas              ?
_exptl_crystal_density_diffrn            5.22
_cell_measurement_temperature            296(2)
_cell_measurement_radiation              'X-rays, Mo Ka'
_cell_measurement_wavelength             0.71073
_cell_measurement_reflns_used            1803
_diffrn_ambient_temperature              296(2)
_diffrn_measurement_device               'automatic diffractometer'
_diffrn_measurement_device_type          'Bruker AXS SMART APEX II'
_diffrn_radiation_type                   'X-rays, Mo Ka'
_diffrn_radiation_wavelength             0.71073
_diffrn_reflns_number                    14668
_diffrn_reflns_theta_min                 2.604
_diffrn_reflns_theta_max                 27.541
_exptl_absorpt_coefficient_mu            27.423
_exptl_absorpt_correction_type           empirical
_computing_structure_solution            'direct methods'
_refine_ls_number_parameters             65
_refine_ls_number_reflns                 1545
_refine_ls_R_factor_gt                   0.0366
_refine_ls_wR_factor_gt                  0.0759

# End of data set 1530528


