##############################################################################
#                                                                            #
# Ba-Si-Te         # Ba2SiTe4                                      #  462399 #
#                                                                            #
##############################################################################
#                                                                            #
#                           Pearson's Crystal Data                           #
#      Crystal Structure Database for Inorganic Compounds (on DVD)           #
#                              Release 2017/18                               #
#                  Editors: Pierre Villars and Karin Cenzual                 #
#                                                                            #
#   Copyright (c) ASM International & Material Phases Data System (MPDS),    #
# Switzerland & National Institute for Materials Science (NIMS), Japan, 2017 #
#                   All rights reserved. Version 2017.08                     #
#                                                                            #
#   This copy of Pearson's Crystal Data is licensed to:                      #
#   University of Alberta, Chemistry Department, 1-5 Installations License         #
#                                                                            #
##############################################################################

data_462399
_audit_creation_date                     2017-12-01
_audit_creation_method
;
Pearson's Crystal Data browser
;
#_database_code_PCD                      462399

# Entry summary

_chemical_formula_structural             'Ba~2~ Si Te~4~'
_chemical_formula_sum                    'Ba2 Si Te4'
_chemical_name_mineral                   ?
_chemical_compound_source                ?
_chemical_name_structure_type            Sr~2~GeS~4~,mP14,11
_chemical_formula_weight                 813.1

# Bibliographic data

_publ_section_title
'Darstellung und Struktur der Verbindungen Ba~2~SiTe~4~ und Ba~2~SiSe~4~'     
_journal_coden_ASTM                      ZAACAB
_journal_name_full                       'Z. Anorg. Allg. Chem.'
_journal_year                            1985
_journal_volume                          524
_journal_page_first                      83
_journal_page_last                       89
_journal_language                        German
loop_
 _publ_author_name
 _publ_author_address
'Brinkmann C.'
;
Darmstadt University of Technology
Eduard Zintl Institut
Darmstadt
Germany
;
'Eisenmann B.'
;
Darmstadt University of Technology
Eduard Zintl Institut
Darmstadt
Germany
;
'Sch\"afer H.'
;
Darmstadt University of Technology
Eduard Zintl Institut
Darmstadt
Germany
;

# Standardized crystallographic data

_cell_length_a                           7.466
_cell_length_b                           7.626
_cell_length_c                           9.65
_cell_angle_alpha                        90
_cell_angle_beta                         108.9
_cell_angle_gamma                        90
_cell_volume                             519.81
_cell_formula_units_Z                    2
_space_group_IT_number                   11
_space_group_name_H-M_alt                'P 1 21/m 1'
loop_
 _space_group_symop_id
 _space_group_symop_operation_xyz
 1 'x, y, z'
 2 '-x, -y, -z'
 3 '-x, 1/2+y, -z'
 4 'x, 1/2-y, z'
loop_
 _atom_type_symbol
 Te
 Ba
 Si
loop_
 _atom_site_label
 _atom_site_type_symbol
 _atom_site_symmetry_multiplicity
 _atom_site_Wyckoff_symbol
 _atom_site_fract_x
 _atom_site_fract_y
 _atom_site_fract_z
 _atom_site_occupancy
 Te3 Te 4 f -0.0094 0.0068 0.2298 1
 Ba1 Ba 2 e 0.2152 0.25 0.5486 1
 Ba2 Ba 2 e 0.2788 0.25 0.0753 1
 Te2 Te 2 e 0.5906 0.25 0.8715 1
 Te1 Te 2 e 0.6265 0.25 0.4368 1
 Si1 Si 2 e 0.7911 0.25 0.7081 1


_exptl_crystal_colour                    dark
_exptl_crystal_density_meas              ?
_exptl_crystal_density_diffrn            5.20
_cell_measurement_temperature            ?
_cell_measurement_radiation              'X-rays, Mo Ka'
_cell_measurement_reflns_used            25
_diffrn_ambient_temperature              ?
_diffrn_measurement_device               'automatic diffractometer'
_diffrn_measurement_device_type          'Philips PW1100'
_diffrn_radiation_type                   'X-rays, Mo Ka'
_diffrn_reflns_number                    3232
_diffrn_reflns_theta_min                 2.5
_diffrn_reflns_theta_max                 30
_exptl_absorpt_coefficient_mu            17.851
_exptl_absorpt_correction_type           empirical
_computing_structure_solution            'direct methods, Fourier synthesis'
_refine_ls_number_parameters             40
_refine_ls_number_reflns                 1543
_refine_ls_R_factor_gt                   0.059
_refine_ls_wR_factor_gt                  ?

# End of data set 462399


