##############################################################################
#                                                                            #
# Ba-O-Sr-W        # Ba2SrWO6 rt                                   #  305369 #
#                                                                            #
##############################################################################
#                                                                            #
#                           Pearson's Crystal Data                           #
#      Crystal Structure Database for Inorganic Compounds (on DVD)           #
#                              Release 2017/18                               #
#                  Editors: Pierre Villars and Karin Cenzual                 #
#                                                                            #
#   Copyright (c) ASM International & Material Phases Data System (MPDS),    #
# Switzerland & National Institute for Materials Science (NIMS), Japan, 2017 #
#                   All rights reserved. Version 2017.08                     #
#                                                                            #
#   This copy of Pearson's Crystal Data is licensed to:                      #
#   University of Alberta, Chemistry Department, 1-5 Installations License         #
#                                                                            #
##############################################################################

data_305369
_audit_creation_date                     2017-12-01
_audit_creation_method
;
Pearson's Crystal Data browser
;
#_database_code_PCD                      305369

# Entry summary

_chemical_formula_structural             'Ba~2~ Sr W O~6~'
_chemical_formula_sum                    'Ba2 O6 Sr W'
_chemical_name_mineral                   ?
_chemical_compound_source                ?
_chemical_name_structure_type            Ba~2~NdBiO~6~,mS20,12
_chemical_formula_weight                 642.1

# Bibliographic data

_publ_section_title
;
An X-Ray Diffraction Study of Mixed Barium Strontium Tungstates with the Composition Ba~3-x~Sr~x~WO~6~
;
_journal_coden_ASTM                      RJICAQ
_journal_name_full                       'Russ. J. Inorg. Chem.'
_journal_year                            1971
_journal_volume                          16
_journal_page_first                      1150
_journal_page_last                       1152
_journal_language                        English
loop_
 _publ_author_name
 _publ_author_address
'Kovba L.M.'
;
Moscow M.V. Lomonosov State University
Department of Inorganic Chemistry
Moscow
Russia
;
'Lykova L.N.'
;
Moscow M.V. Lomonosov State University
Department of Inorganic Chemistry
Moscow
Russia
;
'Shevchenko N.N.'
;
Moscow M.V. Lomonosov State University
Department of Inorganic Chemistry
Moscow
Russia
;

# Standardized crystallographic data

_cell_length_a                           10.3695
_cell_length_b                           6.028
_cell_length_c                           6.109
_cell_angle_alpha                        90
_cell_angle_beta                         124.51
_cell_angle_gamma                        90
_cell_volume                             314.7
_cell_formula_units_Z                    2
_space_group_IT_number                   12
_space_group_name_H-M_alt                'C 1 2/m 1'
loop_
 _space_group_symop_id
 _space_group_symop_operation_xyz
 1 'x, y, z'
 2 '-x, -y, -z'
 3 '-x, y, -z'
 4 'x, -y, z'
 5 '1/2+x, 1/2+y, z'
 6 '1/2-x, 1/2-y, -z'
 7 '1/2-x, 1/2+y, -z'
 8 '1/2+x, 1/2-y, z'

# Atomic positions taken from type-defining entry

loop_
 _atom_type_symbol
 O
 Ba
 W
 Sr
loop_
 _atom_site_label
 _atom_site_type_symbol
 _atom_site_symmetry_multiplicity
 _atom_site_Wyckoff_symbol
 _atom_site_fract_x
 _atom_site_fract_y
 _atom_site_fract_z
 _atom_site_occupancy
 O1 O 8 j 0.0315 0.2596 0.2953 1
 Ba1 Ba 4 i 0.2489 0 0.7457 1
 O2 O 4 i 0.2627 0 0.2024 1
 W1 W 2 d 0 0.5 0.5 1
 Sr1 Sr 2 a 0 0 0 1


_exptl_crystal_colour                    ?
_exptl_crystal_density_meas              ?
_exptl_crystal_density_diffrn            6.78
_cell_measurement_temperature            ?
_cell_measurement_radiation              'X-rays, Cu Ka1'
_cell_measurement_reflns_used            ?
_diffrn_ambient_temperature              ?
_diffrn_measurement_device               'automatic diffractometer'
_diffrn_measurement_device_type          ?
_diffrn_radiation_type                   ?
_diffrn_reflns_number                    ?
_exptl_absorpt_coefficient_mu            ?
_exptl_absorpt_correction_type           ?
_computing_structure_solution            ?
_refine_ls_number_parameters             ?
_refine_ls_number_reflns                 ?
_refine_ls_R_factor_gt                   ?
_refine_ls_wR_factor_gt                  ?

# Published diffraction lines

loop_
 _refln_index_h
 _refln_index_k
 _refln_index_l
 _refln_d_spacing
 _refln_intensity_meas
 1 0 -1 49.63 60
 1 1 0 42.99 20
 2 0 0 30.45 10
 1 1 -2 30.27 10
 0 2 0 29.99 10
 0 1 3 25.77 60
 2 0 2 24.91 10
 0 2 2 24.58 10
 2 2 0 21.44 100
 0 0 4 21.324 80
 2 1 3 19.738 10
 1 2 3 19.553 10
 2 2 2 19.102 10
 3 1 -2 17.605 80
 3 1 2 17.498 100
 1 3 -2 17.398 100
 4 0 0 15.245 60
 2 2 -4 15.146 80
 0 4 0 15.061 80
 4 1 1 14.534 10
 1 4 -1 14.409 10
 4 2 0 13.595 60
 3 3 -2 13.565 80
 2 4 0 13.507 60
 4 0 -4 12.425 40
 4 0 4 12.37 40
 0 4 4 12.297 40

# End of data set 305369


