##############################################################################
#                                                                            #
# Ba-O-Ti          # Ba2TiO4 mon                                   # 1100145 #
#                                                                            #
##############################################################################
#                                                                            #
#                           Pearson's Crystal Data                           #
#      Crystal Structure Database for Inorganic Compounds (on DVD)           #
#                              Release 2017/18                               #
#                  Editors: Pierre Villars and Karin Cenzual                 #
#                                                                            #
#   Copyright (c) ASM International & Material Phases Data System (MPDS),    #
# Switzerland & National Institute for Materials Science (NIMS), Japan, 2017 #
#                   All rights reserved. Version 2017.08                     #
#                                                                            #
#   This copy of Pearson's Crystal Data is licensed to:                      #
#   University of Alberta, Chemistry Department, 1-5 Installations License         #
#                                                                            #
##############################################################################

data_1100145
_audit_creation_date                     2017-12-04
_audit_creation_method
;
Pearson's Crystal Data browser
;
#_database_code_PCD                      1100145

# Entry summary

_chemical_formula_structural             'Ba~2~ Ti O~4~'
_chemical_formula_sum                    'Ba2 O4 Ti'
_chemical_name_mineral                   ?
_chemical_compound_source                ?
_chemical_name_structure_type            Ca~2~[SiO~4~],mP28,14
_chemical_formula_weight                 386.6

# Bibliographic data

_publ_section_title
;
The Crystal Structure of \b-Barium Orthotitanate, \b-Ba~2~TiO~4~, and the Bond Strength-Bond Length Curve of Ti-O
;
_journal_coden_ASTM                      ACBCAR
_journal_name_full                       'Acta Crystallogr. B'
_journal_year                            1973
_journal_volume                          29
_journal_page_first                      2009
_journal_page_last                       2012
_journal_language                        English
loop_
 _publ_author_name
 _publ_author_address
'Wu K.K.'
;
Hamilton McMaster University
Institute of Materials Research
Hamilton
Canada
;
'Brown I.D.'
;
Hamilton McMaster University
Institute of Materials Research
Hamilton
Canada
;

# Standardized crystallographic data

_cell_length_a                           6.096
_cell_length_b                           7.681
_cell_length_c                           11.9018
_cell_angle_alpha                        90
_cell_angle_beta                         117.773
_cell_angle_gamma                        90
_cell_volume                             493.08
_cell_formula_units_Z                    4
_space_group_IT_number                   14
_space_group_name_H-M_alt                'P 1 21/c 1'
loop_
 _space_group_symop_id
 _space_group_symop_operation_xyz
 1 'x, y, z'
 2 '-x, -y, -z'
 3 '-x, 1/2+y, 1/2-z'
 4 'x, 1/2-y, 1/2+z'
loop_
 _atom_type_symbol
 Ba
 O
 Ti
loop_
 _atom_site_label
 _atom_site_type_symbol
 _atom_site_symmetry_multiplicity
 _atom_site_Wyckoff_symbol
 _atom_site_fract_x
 _atom_site_fract_y
 _atom_site_fract_z
 _atom_site_occupancy
 Ba2 Ba 4 e 0.0285 -0.0002 0.3006 1
 O3 O 4 e 0.1445 0.1757 0.1396 1
 O4 O 4 e 0.2505 0.3199 0.4267 1
 O1 O 4 e 0.2872 0.5066 0.069 1
 Ti Ti 4 e 0.3413 0.2798 0.0824 1
 O2 O 4 e 0.6667 0.2366 0.1857 1
 Ba1 Ba 4 e 0.69 0.3412 0.4246 1


_exptl_crystal_colour                    ?
_exptl_crystal_density_meas              5.07
_exptl_crystal_density_diffrn            5.21
_cell_measurement_temperature            ?
_cell_measurement_radiation              ?
_cell_measurement_reflns_used            ?
_diffrn_ambient_temperature              ?
_diffrn_measurement_device               'automatic diffractometer'
_diffrn_measurement_device_type          Syntex
_diffrn_radiation_type                   'X-rays, Mo Ka'
_diffrn_radiation_wavelength             0.7107
_diffrn_reflns_number                    2044
_exptl_absorpt_coefficient_mu            30.9
_exptl_absorpt_correction_type           yes
_computing_structure_solution            'Patterson and Fourier synthesis'
_refine_ls_number_parameters             ?
_refine_ls_number_reflns                 1693
_refine_ls_R_factor_gt                   0.037
_refine_ls_wR_factor_gt                  0.051

# End of data set 1100145


