##############################################################################
#                                                                            #
# Ba-Cu-O-Pt-Y     # Ba3Cu2Y2PtO10                                 #  379628 #
#                                                                            #
##############################################################################
#                                                                            #
#                           Pearson's Crystal Data                           #
#      Crystal Structure Database for Inorganic Compounds (on DVD)           #
#                              Release 2017/18                               #
#                  Editors: Pierre Villars and Karin Cenzual                 #
#                                                                            #
#   Copyright (c) ASM International & Material Phases Data System (MPDS),    #
# Switzerland & National Institute for Materials Science (NIMS), Japan, 2017 #
#                   All rights reserved. Version 2017.08                     #
#                                                                            #
#   This copy of Pearson's Crystal Data is licensed to:                      #
#   University of Alberta, Chemistry Department, 1-5 Installations License         #
#                                                                            #
##############################################################################

data_379628
_audit_creation_date                     2017-12-01
_audit_creation_method
;
Pearson's Crystal Data browser
;
#_database_code_PCD                      379628

# Entry summary

_chemical_formula_structural             'Ba~3~ Cu~2~ Y~2~ Pt O~10~'
_chemical_formula_sum                    'Ba3 Cu2 O10 Pt Y2'
_chemical_name_mineral                   ?
_chemical_compound_source                ?
_chemical_name_structure_type            Ba~3~Cu~2~Y~2~PtO~10~,mS36,12
_chemical_formula_weight                 1072.0

# Bibliographic data

_publ_section_title
'Synthesis and crystal structure of Y~2~Ba~3~Cu~2~PtO~10~'                    
_journal_coden_ASTM                      SSCOA4
_journal_name_full                       'Solid State Commun.'
_journal_year                            1988
_journal_volume                          66
_journal_page_first                      223
_journal_page_last                       226
_journal_language                        English
loop_
 _publ_author_name
 _publ_author_address
'Calestani G.L.'
;
Consiglio Nazionale delle Ricerche (CNR)
Istituto di Strutturistica Chimica
Parma
Italy
;
'Rizzoli C.'
;
Consiglio Nazionale delle Ricerche (CNR)
Istituto di Strutturistica Chimica
Parma
Italy
;
'Andreetti G.D.'
;
Consiglio Nazionale delle Ricerche (CNR)
Istituto di Strutturistica Chimica
Parma
Italy
;

# Standardized crystallographic data

_cell_length_a                           12.518
_cell_length_b                           5.82
_cell_length_c                           7.362
_cell_angle_alpha                        90
_cell_angle_beta                         105.44
_cell_angle_gamma                        90
_cell_volume                             517
_cell_formula_units_Z                    2
_space_group_IT_number                   12
_space_group_name_H-M_alt                'C 1 2/m 1'
loop_
 _space_group_symop_id
 _space_group_symop_operation_xyz
 1 'x, y, z'
 2 '-x, -y, -z'
 3 '-x, y, -z'
 4 'x, -y, z'
 5 '1/2+x, 1/2+y, z'
 6 '1/2-x, 1/2-y, -z'
 7 '1/2-x, 1/2+y, -z'
 8 '1/2+x, 1/2-y, z'
loop_
 _atom_type_symbol
 O
 Cu
 Y
 Ba
 Pt
loop_
 _atom_site_label
 _atom_site_type_symbol
 _atom_site_symmetry_multiplicity
 _atom_site_Wyckoff_symbol
 _atom_site_fract_x
 _atom_site_fract_y
 _atom_site_fract_z
 _atom_site_occupancy
 O1 O 8 j 0.017 0.22 0.2191 1
 O3 O 8 j 0.3173 0.2717 0.37 1
 Cu Cu 4 i 0.0918 0 0.7058 1
 O2 O 4 i 0.1577 0 0.0593 1
 Y Y 4 i 0.1893 0 0.3733 1
 Ba2 Ba 4 i 0.6505 0 0.0327 1
 Ba1 Ba 2 d 0 0.5 0.5 1
 Pt Pt 2 a 0 0 0 1


_exptl_crystal_colour                    ?
_exptl_crystal_density_meas              ?
_exptl_crystal_density_diffrn            6.89
_cell_measurement_temperature            ?
_cell_measurement_radiation              'X-rays, Mo Ka'
_cell_measurement_reflns_used            ?
_diffrn_ambient_temperature              ?
_diffrn_measurement_device               'automatic diffractometer'
_diffrn_measurement_device_type          'Philips PW1100'
_diffrn_radiation_type                   'X-rays, Mo Ka'
_diffrn_reflns_number                    ?
_exptl_absorpt_coefficient_mu            ?
_exptl_absorpt_correction_type           ?
_computing_structure_solution            ?
_refine_ls_number_parameters             ?
_refine_ls_number_reflns                 321
_refine_ls_R_factor_gt                   0.048
_refine_ls_wR_factor_gt                  ?

# End of data set 379628


