##############################################################################
#                                                                            #
# Ba-Cu-O-Pt-Y     # Ba3Cu2Y2PtO10                                 #  379107 #
#                                                                            #
##############################################################################
#                                                                            #
#                           Pearson's Crystal Data                           #
#      Crystal Structure Database for Inorganic Compounds (on DVD)           #
#                              Release 2017/18                               #
#                  Editors: Pierre Villars and Karin Cenzual                 #
#                                                                            #
#   Copyright (c) ASM International & Material Phases Data System (MPDS),    #
# Switzerland & National Institute for Materials Science (NIMS), Japan, 2017 #
#                   All rights reserved. Version 2017.08                     #
#                                                                            #
#   This copy of Pearson's Crystal Data is licensed to:                      #
#   University of Alberta, Chemistry Department, 1-5 Installations License         #
#                                                                            #
##############################################################################

data_379107
_audit_creation_date                     2017-12-01
_audit_creation_method
;
Pearson's Crystal Data browser
;
#_database_code_PCD                      379107

# Entry summary

_chemical_formula_structural             'Ba~3~ Cu~2~ Y~2~ Pt O~10~'
_chemical_formula_sum                    'Ba3 Cu2 O10 Pt Y2'
_chemical_name_mineral                   ?
_chemical_compound_source                ?
_chemical_name_structure_type            Ba~3~Cu~2~Y~2~PtO~10~,mS36,12
_chemical_formula_weight                 1072.0

# Bibliographic data

_publ_section_title
'Crystal growth in the Y-Ba-Cu-O and Bi-Sr-Ca-Cu-O systems'                   
_journal_coden_ASTM                      INOMAF
_journal_name_full                       'Inorg. Mater.'
_journal_year                            1994
_journal_volume                          30
_journal_page_first                      539
_journal_page_last                       558
_journal_language                        English
loop_
 _publ_author_name
 _publ_author_address
'Khoroshilov A.V.'
;
Russian Academy of Sciences
Kurnakov N.S. Institute of General and Inorganic Chemistry
Moscow
Russia
;
'Shaplygin I.S.'
;
Russian Academy of Sciences
Kurnakov N.S. Institute of General and Inorganic Chemistry
Moscow
Russia
;

# Standardized crystallographic data

_cell_length_a                           12.507
_cell_length_b                           5.809
_cell_length_c                           7.357
_cell_angle_alpha                        90
_cell_angle_beta                         105.58
_cell_angle_gamma                        90
_cell_volume                             514.9
_cell_formula_units_Z                    2
_space_group_IT_number                   12
_space_group_name_H-M_alt                'C 1 2/m 1'
loop_
 _space_group_symop_id
 _space_group_symop_operation_xyz
 1 'x, y, z'
 2 '-x, -y, -z'
 3 '-x, y, -z'
 4 'x, -y, z'
 5 '1/2+x, 1/2+y, z'
 6 '1/2-x, 1/2-y, -z'
 7 '1/2-x, 1/2+y, -z'
 8 '1/2+x, 1/2-y, z'

# Atomic positions taken from type-defining entry

loop_
 _atom_type_symbol
 O
 Cu
 Y
 Ba
 Pt
loop_
 _atom_site_label
 _atom_site_type_symbol
 _atom_site_symmetry_multiplicity
 _atom_site_Wyckoff_symbol
 _atom_site_fract_x
 _atom_site_fract_y
 _atom_site_fract_z
 _atom_site_occupancy
 O1 O 8 j 0.0177 0.2221 0.2174 1
 O2 O 8 j 0.3165 0.2694 0.3701 1
 Cu1 Cu 4 i 0.0921 0 0.7065 1
 O3 O 4 i 0.1656 0 0.0427 1
 Y1 Y 4 i 0.1894 0 0.373 1
 Ba1 Ba 4 i 0.6507 0 0.0328 1
 Ba2 Ba 2 d 0 0.5 0.5 1
 Pt1 Pt 2 a 0 0 0 1


_exptl_crystal_colour                    green
_exptl_crystal_density_meas              ?
_exptl_crystal_density_diffrn            6.91
_cell_measurement_temperature            ?
_cell_measurement_radiation              X-rays
_cell_measurement_reflns_used            ?
_diffrn_ambient_temperature              ?
_diffrn_measurement_device               photographs
_diffrn_measurement_device_type          ?
_diffrn_radiation_type                   ?
_diffrn_reflns_number                    ?
_exptl_absorpt_coefficient_mu            ?
_exptl_absorpt_correction_type           ?
_computing_structure_solution            ?
_refine_ls_number_parameters             ?
_refine_ls_number_reflns                 ?
_refine_ls_R_factor_gt                   ?
_refine_ls_wR_factor_gt                  ?

# End of data set 379107


