##############################################################################
#                                                                            #
# Ba-Ni-O-Sb       # Ba3NiSb2O9                                    #  383734 #
#                                                                            #
##############################################################################
#                                                                            #
#                           Pearson's Crystal Data                           #
#      Crystal Structure Database for Inorganic Compounds (on DVD)           #
#                              Release 2017/18                               #
#                  Editors: Pierre Villars and Karin Cenzual                 #
#                                                                            #
#   Copyright (c) ASM International & Material Phases Data System (MPDS),    #
# Switzerland & National Institute for Materials Science (NIMS), Japan, 2017 #
#                   All rights reserved. Version 2017.08                     #
#                                                                            #
#   This copy of Pearson's Crystal Data is licensed to:                      #
#   University of Alberta, Chemistry Department, 1-5 Installations License         #
#                                                                            #
##############################################################################

data_383734
_audit_creation_date                     2017-12-01
_audit_creation_method
;
Pearson's Crystal Data browser
;
#_database_code_PCD                      383734

# Entry summary

_chemical_formula_structural             'Ba~3~ Ni Sb~2~ O~9~'
_chemical_formula_sum                    'Ba3 Ni O9 Sb2'
_chemical_name_mineral                   ?
_chemical_compound_source                ?
_chemical_name_structure_type
Ba~3~(W~0.5~Fe~0.5~)~2~FeO~9~,hP30,194                                        
_chemical_formula_weight                 858.2

# Bibliographic data

_publ_section_title
'A powder neutron diffraction study of cation ordering in 6H Ba~3~Sb~2~NiO~9~'
_journal_coden_ASTM                      JINCAO
_journal_name_full                       'J. Inorg. Nucl. Chem.'
_journal_year                            1978
_journal_volume                          40
_journal_page_first                      447
_journal_page_last                       449
_journal_language                        English
loop_
 _publ_author_name
 _publ_author_address
'Jacobson A.J.'
;
Exxon Chemical Co.
Corporate Research Science
Linden
U.S.A. New Jersey
;
'Calvert A.J.'
;
Oxford University
Department of Inorganic Chemistry
Oxford
United Kingdom
;

# Standardized crystallographic data

_cell_length_a                           5.818
_cell_length_b                           5.818
_cell_length_c                           14.36
_cell_angle_alpha                        90
_cell_angle_beta                         90
_cell_angle_gamma                        120
_cell_volume                             421
_cell_formula_units_Z                    2
_space_group_IT_number                   194
_space_group_name_H-M_alt                'P 63/m m c'
loop_
 _space_group_symop_id
 _space_group_symop_operation_xyz
 1 'x, y, z'
 2 '-x+y, -x, 1/2-z'
 3 '-x+y, -x, z'
 4 '-x+y, y, 1/2-z'
 5 '-x+y, y, z'
 6 '-x, -x+y, -z'
 7 '-x, -x+y, 1/2+z'
 8 '-x, -y, -z'
 9 '-x, -y, 1/2+z'
 10 '-y, -x, 1/2-z'
 11 '-y, -x, z'
 12 '-y, x-y, 1/2-z'
 13 '-y, x-y, z'
 14 'x, x-y, 1/2-z'
 15 'x, x-y, z'
 16 'x, y, 1/2-z'
 17 'x-y, -y, -z'
 18 'x-y, -y, 1/2+z'
 19 'x-y, x, -z'
 20 'x-y, x, 1/2+z'
 21 'y, -x+y, -z'
 22 'y, -x+y, 1/2+z'
 23 'y, x, -z'
 24 'y, x, 1/2+z'
loop_
 _atom_type_symbol
 O
 Ba
 Sb
 Ni
loop_
 _atom_site_label
 _atom_site_type_symbol
 _atom_site_symmetry_multiplicity
 _atom_site_Wyckoff_symbol
 _atom_site_fract_x
 _atom_site_fract_y
 _atom_site_fract_z
 _atom_site_occupancy
 O(2) O 12 k 0.1685 0.337 0.5831 1
 O(1) O 6 h 0.5184 0.0368 0.25 1
 Ba(2) Ba 4 f 0.333333 0.666667 0.089 1
 Sb Sb 4 f 0.333333 0.666667 0.651 1
 Ba(1) Ba 2 b 0 0 0.25 1
 Ni Ni 2 a 0 0 0 1


_exptl_crystal_colour                    ?
_exptl_crystal_density_meas              ?
_exptl_crystal_density_diffrn            6.77
_cell_measurement_temperature            4.2
_cell_measurement_radiation              neutrons
_cell_measurement_wavelength             1.073
_pd_proc_wavelength                      1.073
_cell_measurement_reflns_used            ?
_diffrn_ambient_temperature              4.2
_diffrn_measurement_device               'automatic diffractometer'
_diffrn_measurement_device_type
;
United Kingdom, Harwell, Atomic Energy Research Establishment, PLUTO reactor, PANDA
;
_diffrn_radiation_type                   neutrons
_diffrn_radiation_wavelength             1.073
_diffrn_reflns_number                    ?
_diffrn_reflns_theta_min                 2.5
_diffrn_reflns_theta_max                 32.5
_pd_proc_2theta_range_min                5
_pd_proc_2theta_range_max                65
_exptl_absorpt_coefficient_mu            ?
_exptl_absorpt_correction_type           ?
_computing_structure_solution            'starting values from the literature'
_refine_ls_number_parameters             ?
_refine_ls_number_reflns                 ?
_refine_ls_R_factor_gt                   ?
_refine_ls_wR_factor_gt                  ?
_pd_proc_ls_proof_R_factor               0.115
_pd_proc_ls_proof_wR_factor              ?
_refine_ls_R_I_factor                    ?

# End of data set 383734


