##############################################################################
#                                                                            #
# Ba-Cl-O-Os       # Ba5Os3ClO15                                   # 1510202 #
#                                                                            #
##############################################################################
#                                                                            #
#                           Pearson's Crystal Data                           #
#      Crystal Structure Database for Inorganic Compounds (on DVD)           #
#                              Release 2017/18                               #
#                  Editors: Pierre Villars and Karin Cenzual                 #
#                                                                            #
#   Copyright (c) ASM International & Material Phases Data System (MPDS),    #
# Switzerland & National Institute for Materials Science (NIMS), Japan, 2017 #
#                   All rights reserved. Version 2017.08                     #
#                                                                            #
#   This copy of Pearson's Crystal Data is licensed to:                      #
#   University of Alberta, Chemistry Department, 1-5 Installations License         #
#                                                                            #
##############################################################################

data_1510202
_audit_creation_date                     2017-12-05
_audit_creation_method
;
Pearson's Crystal Data browser
;
#_database_code_PCD                      1510202

# Entry summary

_chemical_formula_structural             'Ba~5~ Os~3~ Cl O~15~'
_chemical_formula_sum                    'Ba5 Cl O15 Os3'
_chemical_name_mineral                   ?
_chemical_compound_source                ?
_chemical_name_structure_type            Ba~5~Re~3~BrO~15~,hP48,185
_chemical_formula_weight                 1532.7

# Bibliographic data

_publ_section_title
'Structure determination of a new apatite: Ba~5~(OsO~5~)~3~Cl'                
_journal_coden_ASTM                      MRBUAC
_journal_name_full                       'Mater. Res. Bull.'
_journal_year                            1995
_journal_volume                          30
_journal_page_first                      1249
_journal_page_last                       1252
_journal_language                        English
loop_
 _publ_author_name
 _publ_author_address
'Plaisier J.R.'
;
Leiden University
Gorlaeus Laboratories
Leiden
Netherlands
;
'De Graaff R.A.G.'
;
Leiden University
Gorlaeus Laboratories
Leiden
Netherlands
;
'Ijdo D.J.W.'
;
Leiden University
Gorlaeus Laboratories
Leiden
Netherlands
;

# Standardized crystallographic data

_cell_length_a                           10.928
_cell_length_b                           10.928
_cell_length_c                           7.824
_cell_angle_alpha                        90
_cell_angle_beta                         90
_cell_angle_gamma                        120
_cell_volume                             809.2
_cell_formula_units_Z                    2
_space_group_IT_number                   185
_space_group_name_H-M_alt                'P 63 c m'
loop_
 _space_group_symop_id
 _space_group_symop_operation_xyz
 1 'x, y, z'
 2 '-x+y, -x, z'
 3 '-x+y, y, 1/2+z'
 4 '-x, -x+y, z'
 5 '-x, -y, 1/2+z'
 6 '-y, -x, 1/2+z'
 7 '-y, x-y, z'
 8 'x, x-y, 1/2+z'
 9 'x-y, -y, z'
 10 'x-y, x, 1/2+z'
 11 'y, -x+y, 1/2+z'
 12 'y, x, z'
loop_
 _atom_type_symbol
 O
 Os
 Ba
 Cl
loop_
 _atom_site_label
 _atom_site_type_symbol
 _atom_site_symmetry_multiplicity
 _atom_site_Wyckoff_symbol
 _atom_site_fract_x
 _atom_site_fract_y
 _atom_site_fract_z
 _atom_site_occupancy
 O1 O 12 d 0.1305 0.575 0.215 1
 O2 O 12 d 0.1339 0.3891 0.033 1
 O3 O 6 c 0.293 0 0.359 1
 Os Os 6 c 0.38949 0 0.1784 1
 Ba2 Ba 6 c 0.73783 0 0.2305 1
 Ba1 Ba 4 b 0.333333 0.666667 0.465 1
 Cl Cl 2 a 0 0 0.0 1


_exptl_crystal_colour                    ?
_exptl_crystal_density_meas              ?
_exptl_crystal_density_diffrn            6.29
_cell_measurement_temperature            ?
_cell_measurement_radiation              'X-rays, Mo Ka'
_cell_measurement_wavelength             0.71069
_cell_measurement_reflns_used            24
_diffrn_ambient_temperature              ?
_diffrn_measurement_device               'automatic diffractometer'
_diffrn_measurement_device_type          'Enraf-Nonius CAD4'
_diffrn_radiation_type                   'X-rays, Mo Ka'
_diffrn_radiation_wavelength             0.71069
_diffrn_reflns_number                    2900
_exptl_absorpt_coefficient_mu            35.69
_exptl_absorpt_correction_type           empirical
_computing_structure_solution            'Patterson and Fourier synthesis'
_refine_ls_number_parameters             42
_refine_ls_number_reflns                 ?
_refine_ls_R_factor_gt                   0.054
_refine_ls_wR_factor_gt                  0.062

# End of data set 1510202


