##############################################################################
#                                                                            #
# As-Ba            # BaAs3                                         #  528671 #
#                                                                            #
##############################################################################
#                                                                            #
#                           Pearson's Crystal Data                           #
#      Crystal Structure Database for Inorganic Compounds (on DVD)           #
#                              Release 2017/18                               #
#                  Editors: Pierre Villars and Karin Cenzual                 #
#                                                                            #
#   Copyright (c) ASM International & Material Phases Data System (MPDS),    #
# Switzerland & National Institute for Materials Science (NIMS), Japan, 2017 #
#                   All rights reserved. Version 2017.08                     #
#                                                                            #
#   This copy of Pearson's Crystal Data is licensed to:                      #
#   University of Alberta, Chemistry Department, 1-5 Installations License         #
#                                                                            #
##############################################################################

data_528671
_audit_creation_date                     2017-12-01
_audit_creation_method
;
Pearson's Crystal Data browser
;
#_database_code_PCD                      528671

# Entry summary

_chemical_formula_structural             'Ba As~3~'
_chemical_formula_sum                    'As3 Ba'
_chemical_name_mineral                   ?
_chemical_compound_source                ?
_chemical_name_structure_type            SrAs~3~,mS16,12
_chemical_formula_weight                 362.1
_chemical_melting_point                  920(15)

# Bibliographic data

_publ_section_title
;
Structure, electrical and magnetic properties of CaAs~3~, SrAs~3~, BaAs~3~ and EuAs~3~
;
_journal_coden_ASTM                      JPCSAW
_journal_name_full                       'J. Phys. Chem. Solids'
_journal_year                            1981
_journal_volume                          42
_journal_page_first                      687
_journal_page_last                       695
_journal_language                        English
loop_
 _publ_author_name
 _publ_author_address
'Bauhofer W.'
;
Max Planck Society
Max Planck Institut f\"ur Festk\"orperforschung
Stuttgart
Germany
;
'Wittmann M.'
;
Max Planck Society
Max Planck Institut f\"ur Festk\"orperforschung
Stuttgart
Germany
;
'Von Schnering H.G.'
;
Max Planck Society
Max Planck Institut f\"ur Festk\"orperforschung
Stuttgart
Germany
;

# Standardized crystallographic data

_cell_length_a                           10.162
_cell_length_b                           7.76
_cell_length_c                           6.015
_cell_angle_alpha                        90
_cell_angle_beta                         113.55
_cell_angle_gamma                        90
_cell_volume                             434.82
_cell_formula_units_Z                    4
_space_group_IT_number                   12
_space_group_name_H-M_alt                'C 1 2/m 1'
loop_
 _space_group_symop_id
 _space_group_symop_operation_xyz
 1 'x, y, z'
 2 '-x, -y, -z'
 3 '-x, y, -z'
 4 'x, -y, z'
 5 '1/2+x, 1/2+y, z'
 6 '1/2-x, 1/2-y, -z'
 7 '1/2-x, 1/2+y, -z'
 8 '1/2+x, 1/2-y, z'
loop_
 _atom_type_symbol
 As
 Ba
loop_
 _atom_site_label
 _atom_site_type_symbol
 _atom_site_symmetry_multiplicity
 _atom_site_Wyckoff_symbol
 _atom_site_fract_x
 _atom_site_fract_y
 _atom_site_fract_z
 _atom_site_occupancy
 As2 As 8 j 0.3614 0.2658 0.1835 1
 Ba Ba 4 i 0.1637 0 0.337 1
 As1 As 4 i 0.4958 0 0.2031 1


_exptl_crystal_colour                    black
_exptl_crystal_density_meas              ?
_exptl_crystal_density_diffrn            5.53
_cell_measurement_temperature            ?
_cell_measurement_radiation              'X-rays, Mo Ka'
_cell_measurement_reflns_used            12
_diffrn_ambient_temperature              ?
_diffrn_measurement_device               'automatic diffractometer'
_diffrn_measurement_device_type          'Syntex P1'
_diffrn_radiation_type                   'X-rays, Mo Ka'
_diffrn_reflns_number                    587
_diffrn_reflns_theta_min                 1
_diffrn_reflns_theta_max                 27.5
_exptl_absorpt_coefficient_mu            ?
_exptl_absorpt_correction_type           ?
_computing_structure_solution            'starting values from the literature'
_refine_ls_number_parameters             ?
_refine_ls_number_reflns                 489
_refine_ls_R_factor_gt                   0.063
_refine_ls_wR_factor_gt                  ?

# End of data set 528671


