##############################################################################
#                                                                            #
# Ba-Ge            # BaGe3 hp2                                     # 1530859 #
#                                                                            #
##############################################################################
#                                                                            #
#                           Pearson's Crystal Data                           #
#      Crystal Structure Database for Inorganic Compounds (on DVD)           #
#                              Release 2017/18                               #
#                  Editors: Pierre Villars and Karin Cenzual                 #
#                                                                            #
#   Copyright (c) ASM International & Material Phases Data System (MPDS),    #
# Switzerland & National Institute for Materials Science (NIMS), Japan, 2017 #
#                   All rights reserved. Version 2017.08                     #
#                                                                            #
#   This copy of Pearson's Crystal Data is licensed to:                      #
#   University of Alberta, Chemistry Department, 1-5 Installations License         #
#                                                                            #
##############################################################################

data_1530859
_audit_creation_date                     2017-12-05
_audit_creation_method
;
Pearson's Crystal Data browser
;
#_database_code_PCD                      1530859

# Entry summary

_chemical_formula_structural             'Ba Ge~3~'
_chemical_formula_sum                    'Ba Ge3'
_chemical_name_mineral                   ?
_chemical_compound_source                ?
_chemical_name_structure_type            Mg~3~Cd,hP8,194
_chemical_formula_weight                 355.1

# Bibliographic data

_publ_section_title
'Germanium dumbbells in a new superconducting modification of BaGe~3~'        
_journal_coden_ASTM                      INOCAJ
_journal_name_full                       'Inorg. Chem.'
_journal_year                            2016
_journal_volume                          55
_journal_page_first                      4498
_journal_page_last                       4503
_journal_language                        English
loop_
 _publ_author_name
 _publ_author_address
'Castillo R.'
;
Max Planck Society
MPI f\"ur Chemische Physik Fester Stoffe
Dresden
Germany
;
'Baranov A.I.'
;
Max Planck Society
MPI f\"ur Chemische Physik Fester Stoffe
Dresden
Germany
;
'Burkhardt U.'
;
Max Planck Society
MPI f\"ur Chemische Physik Fester Stoffe
Dresden
Germany
;
'Cardoso Gil R.'
;
Max Planck Society
MPI f\"ur Chemische Physik Fester Stoffe
Dresden
Germany
;
'Schnelle W.'
;
Max Planck Society
MPI f\"ur Chemische Physik Fester Stoffe
Dresden
Germany
;
'Bobnar M.'
;
Max Planck Society
MPI f\"ur Chemische Physik Fester Stoffe
Dresden
Germany
;
'Schwarz U.'
;
Max Planck Society
MPI f\"ur Chemische Physik Fester Stoffe
Dresden
Germany
;

# Standardized crystallographic data

_cell_length_a                           6.8288
_cell_length_b                           6.8288
_cell_length_c                           5.0303
_cell_angle_alpha                        90
_cell_angle_beta                         90
_cell_angle_gamma                        120
_cell_volume                             203.1
_cell_formula_units_Z                    2
_space_group_IT_number                   194
_space_group_name_H-M_alt                'P 63/m m c'
loop_
 _space_group_symop_id
 _space_group_symop_operation_xyz
 1 'x, y, z'
 2 '-x+y, -x, 1/2-z'
 3 '-x+y, -x, z'
 4 '-x+y, y, 1/2-z'
 5 '-x+y, y, z'
 6 '-x, -x+y, -z'
 7 '-x, -x+y, 1/2+z'
 8 '-x, -y, -z'
 9 '-x, -y, 1/2+z'
 10 '-y, -x, 1/2-z'
 11 '-y, -x, z'
 12 '-y, x-y, 1/2-z'
 13 '-y, x-y, z'
 14 'x, x-y, 1/2-z'
 15 'x, x-y, z'
 16 'x, y, 1/2-z'
 17 'x-y, -y, -z'
 18 'x-y, -y, 1/2+z'
 19 'x-y, x, -z'
 20 'x-y, x, 1/2+z'
 21 'y, -x+y, -z'
 22 'y, -x+y, 1/2+z'
 23 'y, x, -z'
 24 'y, x, 1/2+z'
loop_
 _atom_type_symbol
 Ge
 Ba
loop_
 _atom_site_label
 _atom_site_type_symbol
 _atom_site_symmetry_multiplicity
 _atom_site_Wyckoff_symbol
 _atom_site_fract_x
 _atom_site_fract_y
 _atom_site_fract_z
 _atom_site_occupancy
 Ge Ge 6 h 0.1278 0.2556 0.25 1
 Ba Ba 2 d 0.333333 0.666667 0.75 1


_exptl_crystal_colour                    ?
_exptl_crystal_density_meas              ?
_exptl_crystal_density_diffrn            5.81
_cell_measurement_temperature            ?
_cell_measurement_radiation              ?
_cell_measurement_reflns_used            ?
_diffrn_ambient_temperature              293(2)
_diffrn_measurement_device               'automatic diffractometer'
_diffrn_measurement_device_type          'Huber G670'
_diffrn_radiation_type                   'X-rays, Cu Ka1'
_diffrn_radiation_wavelength             1.54056
_diffrn_reflns_number                    ?
_diffrn_reflns_theta_min                 5
_diffrn_reflns_theta_max                 45
_pd_proc_2theta_range_min                10
_pd_proc_2theta_range_max                90
_exptl_absorpt_coefficient_mu            ?
_exptl_absorpt_correction_type           ?
_computing_structure_solution            'starting values from the literature'
_refine_ls_number_parameters             15
_refine_ls_number_reflns                 ?
_refine_ls_R_factor_gt                   0.03
_refine_ls_wR_factor_gt                  ?
_pd_proc_ls_proof_R_factor               0.10
_pd_proc_ls_proof_wR_factor              ?
_refine_ls_R_I_factor                    ?

# End of data set 1530859


