##############################################################################
#                                                                            #
# Ba-I             # BaI2 hp-ht                                    #  541690 #
#                                                                            #
##############################################################################
#                                                                            #
#                           Pearson's Crystal Data                           #
#      Crystal Structure Database for Inorganic Compounds (on DVD)           #
#                              Release 2017/18                               #
#                  Editors: Pierre Villars and Karin Cenzual                 #
#                                                                            #
#   Copyright (c) ASM International & Material Phases Data System (MPDS),    #
# Switzerland & National Institute for Materials Science (NIMS), Japan, 2017 #
#                   All rights reserved. Version 2017.08                     #
#                                                                            #
#   This copy of Pearson's Crystal Data is licensed to:                      #
#   University of Alberta, Chemistry Department, 1-5 Installations License         #
#                                                                            #
##############################################################################

data_541690
_audit_creation_date                     2017-12-04
_audit_creation_method
;
Pearson's Crystal Data browser
;
#_database_code_PCD                      541690

# Entry summary

_chemical_formula_structural             'Ba I~2~'
_chemical_formula_sum                    'Ba I2'
_chemical_name_mineral                   ?
_chemical_compound_source                ?
_chemical_name_structure_type            Fe~2~P,hP9,189
_chemical_formula_weight                 391.1

# Bibliographic data

_publ_section_title
'A Structure Refinement of the High Pressure Modification BaI~2~-II'          
_journal_coden_ASTM                      JSSCBI
_journal_name_full                       'J. Solid State Chem.'
_journal_year                            1983
_journal_volume                          47
_journal_page_first                      328
_journal_page_last                       332
_journal_language                        English
loop_
 _publ_author_name
 _publ_author_address
'Beck H.P.'
;
Erlangen University
Institut f\"ur Anorganische Chemie
Erlangen
Germany
;

# Standardized crystallographic data

_cell_length_a                           9.142
_cell_length_b                           9.142
_cell_length_c                           5.173
_cell_angle_alpha                        90
_cell_angle_beta                         90
_cell_angle_gamma                        120
_cell_volume                             374.42
_cell_formula_units_Z                    3
_space_group_IT_number                   189
_space_group_name_H-M_alt                'P -6 2 m'
loop_
 _space_group_symop_id
 _space_group_symop_operation_xyz
 1 'x, y, z'
 2 '-x+y, -x, -z'
 3 '-x+y, -x, z'
 4 '-x, -x+y, -z'
 5 '-x, -x+y, z'
 6 '-y, x-y, -z'
 7 '-y, x-y, z'
 8 'x, y, -z'
 9 'x-y, -y, -z'
 10 'x-y, -y, z'
 11 'y, x, -z'
 12 'y, x, z'
loop_
 _atom_type_symbol
 I
 Ba
loop_
 _atom_site_label
 _atom_site_type_symbol
 _atom_site_symmetry_multiplicity
 _atom_site_Wyckoff_symbol
 _atom_site_fract_x
 _atom_site_fract_y
 _atom_site_fract_z
 _atom_site_occupancy
 I(1) I 3 g 0.2563 0 0.5 1
 I(2) I 3 f 0.5918 0 0 1
 Ba(2) Ba 2 d 0.333333 0.666667 0.5 1
 Ba(1) Ba 1 a 0 0 0 1


_exptl_crystal_colour                    white
_exptl_crystal_density_meas              ?
_exptl_crystal_density_diffrn            5.20
_cell_measurement_temperature            ?
_cell_measurement_radiation              X-rays
_cell_measurement_reflns_used            ?
_diffrn_ambient_temperature              ?
_diffrn_measurement_device               'automatic diffractometer'
_diffrn_measurement_device_type          'Philips PW1100'
_diffrn_radiation_type                   'X-rays, Ag Ka'
_diffrn_reflns_number                    ?
_diffrn_reflns_theta_min                 3
_diffrn_reflns_theta_max                 20
_exptl_absorpt_coefficient_mu            10.65
_exptl_absorpt_correction_type           yes
_computing_structure_solution            'starting values from the literature'
_refine_ls_number_parameters             ?
_refine_ls_number_reflns                 ?
_refine_ls_R_factor_gt                   0.027
_refine_ls_wR_factor_gt                  ?

# End of data set 541690


