##############################################################################
#                                                                            #
# Ba-Mn-O          # BaMnO3 ht2                                    # 1501813 #
#                                                                            #
##############################################################################
#                                                                            #
#                           Pearson's Crystal Data                           #
#      Crystal Structure Database for Inorganic Compounds (on DVD)           #
#                              Release 2017/18                               #
#                  Editors: Pierre Villars and Karin Cenzual                 #
#                                                                            #
#   Copyright (c) ASM International & Material Phases Data System (MPDS),    #
# Switzerland & National Institute for Materials Science (NIMS), Japan, 2017 #
#                   All rights reserved. Version 2017.08                     #
#                                                                            #
#   This copy of Pearson's Crystal Data is licensed to:                      #
#   University of Alberta, Chemistry Department, 1-5 Installations License         #
#                                                                            #
##############################################################################

data_1501813
_audit_creation_date                     2017-12-05
_audit_creation_method
;
Pearson's Crystal Data browser
;
#_database_code_PCD                      1501813

# Entry summary

_chemical_formula_structural             'Ba Mn O~3~'
_chemical_formula_sum                    'Ba Mn O3'
_chemical_name_mineral                   ?
_chemical_compound_source                ?
_chemical_name_structure_type            BaMnO~3~,hP40,194
_chemical_formula_weight                 240.3

# Bibliographic data

_publ_section_title
'Phase Equilibria and Structural Relations in the System BaMnO~3-x~'          
_journal_coden_ASTM                      JSSCBI
_journal_name_full                       'J. Solid State Chem.'
_journal_year                            1971
_journal_volume                          3
_journal_page_first                      323
_journal_page_last                       339
_journal_language                        English
loop_
 _publ_author_name
 _publ_author_address
'Negas T.'
;
National Bureau of Standards (NBS)
Washington
U.S.A. Washington D.C.
;
'Roth R.S.'
;
National Bureau of Standards (NBS)
Washington
U.S.A. Washington D.C.
;

# Standardized crystallographic data

_cell_length_a                           5.669
_cell_length_b                           5.669
_cell_length_c                           18.767
_cell_angle_alpha                        90
_cell_angle_beta                         90
_cell_angle_gamma                        120
_cell_volume                             522.32
_cell_formula_units_Z                    8
_space_group_IT_number                   194
_space_group_name_H-M_alt                'P 63/m m c'
loop_
 _space_group_symop_id
 _space_group_symop_operation_xyz
 1 'x, y, z'
 2 '-x+y, -x, 1/2-z'
 3 '-x+y, -x, z'
 4 '-x+y, y, 1/2-z'
 5 '-x+y, y, z'
 6 '-x, -x+y, -z'
 7 '-x, -x+y, 1/2+z'
 8 '-x, -y, -z'
 9 '-x, -y, 1/2+z'
 10 '-y, -x, 1/2-z'
 11 '-y, -x, z'
 12 '-y, x-y, 1/2-z'
 13 '-y, x-y, z'
 14 'x, x-y, 1/2-z'
 15 'x, x-y, z'
 16 'x, y, 1/2-z'
 17 'x-y, -y, -z'
 18 'x-y, -y, 1/2+z'
 19 'x-y, x, -z'
 20 'x-y, x, 1/2+z'
 21 'y, -x+y, -z'
 22 'y, -x+y, 1/2+z'
 23 'y, x, -z'
 24 'y, x, 1/2+z'
loop_
 _atom_type_symbol
 O
 Ba
 Mn
loop_
 _atom_site_label
 _atom_site_type_symbol
 _atom_site_symmetry_multiplicity
 _atom_site_Wyckoff_symbol
 _atom_site_fract_x
 _atom_site_fract_y
 _atom_site_fract_z
 _atom_site_occupancy
 O3 O 12 k 0.16667 0.33334 0.625 1
 O2 O 6 h 0.5 0.0 0.25 1
 O1 O 6 g 0.5 0 0 1
 Ba3 Ba 4 f 0.333333 0.666667 0.125 1
 Mn1 Mn 4 f 0.333333 0.666667 0.5625 1
 Mn2 Mn 4 f 0.333333 0.666667 0.6875 1
 Ba2 Ba 2 b 0 0 0.25 1
 Ba1 Ba 2 a 0 0 0 1


_exptl_crystal_colour                    black
_exptl_crystal_density_meas              ?
_exptl_crystal_density_diffrn            6.11
_cell_measurement_temperature            ?
_cell_measurement_radiation              'X-rays, Cu Ka'
_cell_measurement_reflns_used            ?
_diffrn_ambient_temperature              ?
_diffrn_measurement_device               'automatic diffractometer'
_diffrn_measurement_device_type          ?
_diffrn_radiation_type                   'X-rays, Cu Ka'
_diffrn_reflns_number                    ?
_exptl_absorpt_coefficient_mu            ?
_exptl_absorpt_correction_type           ?
_computing_structure_solution            'crystal chemical considerations'
_refine_ls_number_parameters             ?
_refine_ls_number_reflns                 ?
_refine_ls_R_factor_gt                   ?
_refine_ls_wR_factor_gt                  ?
_pd_proc_ls_proof_R_factor               ?
_pd_proc_ls_proof_wR_factor              ?
_refine_ls_R_I_factor                    ?

# Published diffraction lines

loop_
 _refln_index_h
 _refln_index_k
 _refln_index_l
 _refln_d_spacing
 _refln_intensity_meas
 1 0 3 38.64 8
 1 0 4 33.93 91
 1 0 5 29.83 27
 1 1 0 28.35 100
 2 0 1 24.34 3
 1 0 7 23.53 21
 0 0 8 23.47 24
 2 0 3 22.85 6
 2 0 4 21.75 48
 1 0 8 21.17 11
 2 0 5 20.55 13
 1 0 9 19.19 8
 2 0 7 18.101 15
 1 1 8 18.072 12
 2 1 4 17.257 17
 2 0 8 16.96 6
 2 1 5 16.637 6
 3 0 0 16.367 18
 1 0 11 16.116 3
 2 0 9 15.891 5
 2 1 7 15.256 8
 1 0 12 14.899 9
 2 1 8 14.552 3
 2 2 0 14.172 15
 2 1 9 13.861 5
 3 0 8 13.421 3
 2 0 12 13.19 8
 3 1 4 13.078 9
 3 1 5 12.802 3
 3 1 7 12.133 5
 2 1 12 11.956 5
 4 0 4 11.872 4
 0 0 16 11.727 2
 2 1 13 11.393 2
 3 2 4 10.951 4
 1 1 16 10.836 7
 4 1 0 10.715 8

# End of data set 1501813


