##############################################################################
#                                                                            #
# Ba-Mn-O          # BaMnO3 ht4                                    # 1501815 #
#                                                                            #
##############################################################################
#                                                                            #
#                           Pearson's Crystal Data                           #
#      Crystal Structure Database for Inorganic Compounds (on DVD)           #
#                              Release 2017/18                               #
#                  Editors: Pierre Villars and Karin Cenzual                 #
#                                                                            #
#   Copyright (c) ASM International & Material Phases Data System (MPDS),    #
# Switzerland & National Institute for Materials Science (NIMS), Japan, 2017 #
#                   All rights reserved. Version 2017.08                     #
#                                                                            #
#   This copy of Pearson's Crystal Data is licensed to:                      #
#   University of Alberta, Chemistry Department, 1-5 Installations License         #
#                                                                            #
##############################################################################

data_1501815
_audit_creation_date                     2017-12-05
_audit_creation_method
;
Pearson's Crystal Data browser
;
#_database_code_PCD                      1501815

# Entry summary

_chemical_formula_structural             'Ba Mn O~3~'
_chemical_formula_sum                    'Ba Mn O3'
_chemical_name_mineral                   ?
_chemical_compound_source                ?
_chemical_name_structure_type            BaMnO~3~,hP50,194
_chemical_formula_weight                 240.3

# Bibliographic data

_publ_section_title
'Phase Equilibria and Structural Relations in the System BaMnO~3-x~'          
_journal_coden_ASTM                      JSSCBI
_journal_name_full                       'J. Solid State Chem.'
_journal_year                            1971
_journal_volume                          3
_journal_page_first                      323
_journal_page_last                       339
_journal_language                        English
loop_
 _publ_author_name
 _publ_author_address
'Negas T.'
;
National Bureau of Standards (NBS)
Washington
U.S.A. Washington D.C.
;
'Roth R.S.'
;
National Bureau of Standards (NBS)
Washington
U.S.A. Washington D.C.
;

# Standardized crystallographic data

_cell_length_a                           5.68
_cell_length_b                           5.68
_cell_length_c                           23.373
_cell_angle_alpha                        90
_cell_angle_beta                         90
_cell_angle_gamma                        120
_cell_volume                             653
_cell_formula_units_Z                    10
_space_group_IT_number                   194
_space_group_name_H-M_alt                'P 63/m m c'
loop_
 _space_group_symop_id
 _space_group_symop_operation_xyz
 1 'x, y, z'
 2 '-x+y, -x, 1/2-z'
 3 '-x+y, -x, z'
 4 '-x+y, y, 1/2-z'
 5 '-x+y, y, z'
 6 '-x, -x+y, -z'
 7 '-x, -x+y, 1/2+z'
 8 '-x, -y, -z'
 9 '-x, -y, 1/2+z'
 10 '-y, -x, 1/2-z'
 11 '-y, -x, z'
 12 '-y, x-y, 1/2-z'
 13 '-y, x-y, z'
 14 'x, x-y, 1/2-z'
 15 'x, x-y, z'
 16 'x, y, 1/2-z'
 17 'x-y, -y, -z'
 18 'x-y, -y, 1/2+z'
 19 'x-y, x, -z'
 20 'x-y, x, 1/2+z'
 21 'y, -x+y, -z'
 22 'y, -x+y, 1/2+z'
 23 'y, x, -z'
 24 'y, x, 1/2+z'
loop_
 _atom_type_symbol
 O
 Ba
 Mn
loop_
 _atom_site_label
 _atom_site_type_symbol
 _atom_site_symmetry_multiplicity
 _atom_site_Wyckoff_symbol
 _atom_site_fract_x
 _atom_site_fract_y
 _atom_site_fract_z
 _atom_site_occupancy
 O3 O 12 k 0.16667 0.33333 0.15 1
 O2 O 12 k 0.16667 0.33333 0.55 1
 O1 O 6 h 0.5 0.0 0.25 1
 Ba3 Ba 4 f 0.333333 0.666667 0.05 1
 Mn3 Mn 4 f 0.333333 0.666667 0.2 1
 Ba2 Ba 4 f 0.333333 0.666667 0.65 1
 Mn2 Mn 4 e 0 0 0.1 1
 Ba1 Ba 2 b 0 0 0.25 1
 Mn1 Mn 2 a 0 0 0 1


_exptl_crystal_colour                    black
_exptl_crystal_density_meas              ?
_exptl_crystal_density_diffrn            6.11
_cell_measurement_temperature            ?
_cell_measurement_radiation              'X-rays, Cu Ka'
_cell_measurement_reflns_used            ?
_diffrn_ambient_temperature              ?
_diffrn_measurement_device               'automatic diffractometer'
_diffrn_measurement_device_type          ?
_diffrn_radiation_type                   'X-rays, Cu Ka'
_diffrn_reflns_number                    ?
_exptl_absorpt_coefficient_mu            ?
_exptl_absorpt_correction_type           ?
_computing_structure_solution            'crystal chemical considerations'
_refine_ls_number_parameters             ?
_refine_ls_number_reflns                 ?
_refine_ls_R_factor_gt                   ?
_refine_ls_wR_factor_gt                  ?
_pd_proc_ls_proof_R_factor               ?
_pd_proc_ls_proof_wR_factor              ?
_refine_ls_R_I_factor                    ?

# Published diffraction lines

loop_
 _refln_index_h
 _refln_index_k
 _refln_index_l
 _refln_d_spacing
 _refln_intensity_meas
 1 0 2 45.32 4
 1 0 4 37.62 9
 1 0 5 33.9 54
 1 0 6 30.54 14
 1 1 0 28.39 100
 1 0 7 27.63 14
 1 0 8 25.12 17
 2 0 2 24.07 7
 0 0 10 23.37 11
 1 0 9 22.97 6
 2 0 4 22.67 10
 2 0 5 21.77 48
 1 0 10 21.12 5
 2 0 6 20.8 12
 2 0 7 19.807 10
 2 0 8 18.816 11
 2 1 2 18.364 3
 1 0 12 18.108 7
 2 0 9 17.862 4
 2 1 4 17.72 3
 2 1 5 17.278 22
 2 0 10 16.941 5
 2 1 6 16.78 6
 3 0 0 16.397 21
 2 1 7 16.248 9
 2 0 11 16.076 3
 2 1 8 15.686 11
 2 0 12 15.27 5
 2 1 9 15.114 2
 1 0 15 14.856 3
 2 1 10 14.55 3
 2 2 0 14.198 21
 2 1 12 13.448 4
 3 0 10 13.421 4
 2 0 15 13.163 6
 3 1 5 13.096 8
 3 1 6 12.874 3
 3 1 7 12.63 3
 2 1 14 12.422 2
 3 1 8 12.36 4
 2 2 10 12.136 3
 2 0 17 12.001 2
 2 1 15 11.941 4
 4 0 5 11.891 4
 4 0 6 11.727 2
 3 2 5 10.969 4
 1 1 20 10.806 3
 4 1 0 10.734 12

# End of data set 1501815


