##############################################################################
#                                                                            #
# Ba-Mn-O          # BaMnO3 ht3                                    # 1501814 #
#                                                                            #
##############################################################################
#                                                                            #
#                           Pearson's Crystal Data                           #
#      Crystal Structure Database for Inorganic Compounds (on DVD)           #
#                              Release 2017/18                               #
#                  Editors: Pierre Villars and Karin Cenzual                 #
#                                                                            #
#   Copyright (c) ASM International & Material Phases Data System (MPDS),    #
# Switzerland & National Institute for Materials Science (NIMS), Japan, 2017 #
#                   All rights reserved. Version 2017.08                     #
#                                                                            #
#   This copy of Pearson's Crystal Data is licensed to:                      #
#   University of Alberta, Chemistry Department, 1-5 Installations License         #
#                                                                            #
##############################################################################

data_1501814
_audit_creation_date                     2017-12-05
_audit_creation_method
;
Pearson's Crystal Data browser
;
#_database_code_PCD                      1501814

# Entry summary

_chemical_formula_structural             'Ba Mn O~3~'
_chemical_formula_sum                    'Ba Mn O3'
_chemical_name_mineral                   ?
_chemical_compound_source                ?
_chemical_name_structure_type            BaMnO~2.85~,hP30,187
_chemical_formula_weight                 240.3

# Bibliographic data

_publ_section_title
'Phase Equilibria and Structural Relations in the System BaMnO~3-x~'          
_journal_coden_ASTM                      JSSCBI
_journal_name_full                       'J. Solid State Chem.'
_journal_year                            1971
_journal_volume                          3
_journal_page_first                      323
_journal_page_last                       339
_journal_language                        English
loop_
 _publ_author_name
 _publ_author_address
'Negas T.'
;
National Bureau of Standards (NBS)
Washington
U.S.A. Washington D.C.
;
'Roth R.S.'
;
National Bureau of Standards (NBS)
Washington
U.S.A. Washington D.C.
;

# Standardized crystallographic data

_cell_length_a                           5.683
_cell_length_b                           5.683
_cell_length_c                           14.096
_cell_angle_alpha                        90
_cell_angle_beta                         90
_cell_angle_gamma                        120
_cell_volume                             394.3
_cell_formula_units_Z                    6
_space_group_IT_number                   187
_space_group_name_H-M_alt                'P -6 m 2'
loop_
 _space_group_symop_id
 _space_group_symop_operation_xyz
 1 'x, y, z'
 2 '-x+y, -x, -z'
 3 '-x+y, -x, z'
 4 '-x+y, y, -z'
 5 '-x+y, y, z'
 6 '-y, -x, -z'
 7 '-y, -x, z'
 8 '-y, x-y, -z'
 9 '-y, x-y, z'
 10 'x, x-y, -z'
 11 'x, x-y, z'
 12 'x, y, -z'
loop_
 _atom_type_symbol
 O
 Ba
 Mn
loop_
 _atom_site_label
 _atom_site_type_symbol
 _atom_site_symmetry_multiplicity
 _atom_site_Wyckoff_symbol
 _atom_site_fract_x
 _atom_site_fract_y
 _atom_site_fract_z
 _atom_site_occupancy
 O3 O 6 n 0.16667 0.83333 0.16667 1
 O4 O 6 n 0.83333 0.16667 0.33333 1
 O2 O 3 k 0.16667 0.83333 0.5 1
 O1 O 3 j 0.5 0.5 0 1
 Ba3 Ba 2 i 0.666667 0.333333 0.16667 1
 Mn3 Mn 2 h 0.333333 0.666667 0.08333 1
 Ba4 Ba 2 h 0.333333 0.666667 0.33333 1
 Mn1 Mn 2 g 0 0 0.25 1
 Mn2 Mn 2 g 0 0 0.41667 1
 Ba2 Ba 1 f 0.666667 0.333333 0.5 1
 Ba1 Ba 1 a 0 0 0 1


_exptl_crystal_colour                    black
_exptl_crystal_density_meas              ?
_exptl_crystal_density_diffrn            6.07
_cell_measurement_temperature            ?
_cell_measurement_radiation              'X-rays, Cu Ka'
_cell_measurement_reflns_used            ?
_diffrn_ambient_temperature              ?
_diffrn_measurement_device               'automatic diffractometer'
_diffrn_measurement_device_type          ?
_diffrn_radiation_type                   'X-rays, Cu Ka'
_diffrn_reflns_number                    ?
_exptl_absorpt_coefficient_mu            ?
_exptl_absorpt_correction_type           ?
_computing_structure_solution            'crystal chemical considerations'
_refine_ls_number_parameters             ?
_refine_ls_number_reflns                 ?
_refine_ls_R_factor_gt                   ?
_refine_ls_wR_factor_gt                  ?
_pd_proc_ls_proof_R_factor               ?
_pd_proc_ls_proof_wR_factor              ?
_refine_ls_R_I_factor                    ?

# Published diffraction lines

loop_
 _refln_index_h
 _refln_index_k
 _refln_index_l
 _refln_d_spacing
 _refln_intensity_meas
 1 0 2 40.35 6
 1 0 3 33.98 60
 1 0 4 28.63 22
 1 1 0 28.4 100
 1 0 5 24.45 12
 2 0 1 24.25 4
 0 0 6 23.49 20
 2 0 2 23.24 5
 2 0 3 21.79 50
 1 0 6 21.2 8
 2 0 4 20.17 12
 1 0 7 18.639 5
 2 0 5 18.539 9
 1 1 6 18.108 5
 2 1 3 17.296 16
 2 0 6 16.993 5
 2 1 4 16.451 7
 3 0 0 16.402 24
 2 0 7 15.577 3
 2 1 5 15.528 8
 1 0 9 14.927 4
 2 1 6 14.583 5
 2 2 0 14.206 14

# End of data set 1501814


