##############################################################################
#                                                                            #
# Ba-Mn-O          # BaMnO3 rt                                     # 1501811 #
#                                                                            #
##############################################################################
#                                                                            #
#                           Pearson's Crystal Data                           #
#      Crystal Structure Database for Inorganic Compounds (on DVD)           #
#                              Release 2017/18                               #
#                  Editors: Pierre Villars and Karin Cenzual                 #
#                                                                            #
#   Copyright (c) ASM International & Material Phases Data System (MPDS),    #
# Switzerland & National Institute for Materials Science (NIMS), Japan, 2017 #
#                   All rights reserved. Version 2017.08                     #
#                                                                            #
#   This copy of Pearson's Crystal Data is licensed to:                      #
#   University of Alberta, Chemistry Department, 1-5 Installations License         #
#                                                                            #
##############################################################################

data_1501811
_audit_creation_date                     2017-12-05
_audit_creation_method
;
Pearson's Crystal Data browser
;
#_database_code_PCD                      1501811

# Entry summary

_chemical_formula_structural             'Ba Mn O~3~'
_chemical_formula_sum                    'Ba Mn O3'
_chemical_name_mineral                   ?
_chemical_compound_source                ?
_chemical_name_structure_type            BaNiO~3~,hP10,194
_chemical_formula_weight                 240.3

# Bibliographic data

_publ_section_title
'Phase Equilibria and Structural Relations in the System BaMnO~3-x~'          
_journal_coden_ASTM                      JSSCBI
_journal_name_full                       'J. Solid State Chem.'
_journal_year                            1971
_journal_volume                          3
_journal_page_first                      323
_journal_page_last                       339
_journal_language                        English
loop_
 _publ_author_name
 _publ_author_address
'Negas T.'
;
National Bureau of Standards (NBS)
Washington
U.S.A. Washington D.C.
;
'Roth R.S.'
;
National Bureau of Standards (NBS)
Washington
U.S.A. Washington D.C.
;

# Standardized crystallographic data

_cell_length_a                           5.699
_cell_length_b                           5.699
_cell_length_c                           4.817
_cell_angle_alpha                        90
_cell_angle_beta                         90
_cell_angle_gamma                        120
_cell_volume                             135.5
_cell_formula_units_Z                    2
_space_group_IT_number                   194
_space_group_name_H-M_alt                'P 63/m m c'
loop_
 _space_group_symop_id
 _space_group_symop_operation_xyz
 1 'x, y, z'
 2 '-x+y, -x, 1/2-z'
 3 '-x+y, -x, z'
 4 '-x+y, y, 1/2-z'
 5 '-x+y, y, z'
 6 '-x, -x+y, -z'
 7 '-x, -x+y, 1/2+z'
 8 '-x, -y, -z'
 9 '-x, -y, 1/2+z'
 10 '-y, -x, 1/2-z'
 11 '-y, -x, z'
 12 '-y, x-y, 1/2-z'
 13 '-y, x-y, z'
 14 'x, x-y, 1/2-z'
 15 'x, x-y, z'
 16 'x, y, 1/2-z'
 17 'x-y, -y, -z'
 18 'x-y, -y, 1/2+z'
 19 'x-y, x, -z'
 20 'x-y, x, 1/2+z'
 21 'y, -x+y, -z'
 22 'y, -x+y, 1/2+z'
 23 'y, x, -z'
 24 'y, x, 1/2+z'

# Atomic positions taken from type-defining entry

loop_
 _atom_type_symbol
 O
 Ba
 Mn
loop_
 _atom_site_label
 _atom_site_type_symbol
 _atom_site_symmetry_multiplicity
 _atom_site_Wyckoff_symbol
 _atom_site_fract_x
 _atom_site_fract_y
 _atom_site_fract_z
 _atom_site_occupancy
 O1 O 6 h 0.1462 0.2924 0.25 1
 Ba1 Ba 2 d 0.333333 0.666667 0.75 1
 Mn1 Mn 2 a 0 0 0 1


_exptl_crystal_colour                    'green yellow'
_exptl_crystal_density_meas              ?
_exptl_crystal_density_diffrn            5.89
_cell_measurement_temperature            ?
_cell_measurement_radiation              'X-rays, Cu Ka'
_cell_measurement_reflns_used            ?
_diffrn_ambient_temperature              ?
_diffrn_measurement_device               'automatic diffractometer'
_diffrn_measurement_device_type          ?
_diffrn_radiation_type                   ?
_diffrn_reflns_number                    ?
_exptl_absorpt_coefficient_mu            ?
_exptl_absorpt_correction_type           ?
_computing_structure_solution            ?
_refine_ls_number_parameters             ?
_refine_ls_number_reflns                 ?
_refine_ls_R_factor_gt                   ?
_refine_ls_wR_factor_gt                  ?

# Published diffraction lines

loop_
 _refln_index_h
 _refln_index_k
 _refln_index_l
 _refln_d_spacing
 _refln_intensity_meas
 1 0 1 34.46 78
 1 1 0 28.49 100
 2 0 0 24.67 3
 0 0 2 24.07 9
 2 0 1 21.96 60
 1 0 2 21.64 29
 1 1 2 18.399 6
 2 1 1 17.394 24
 2 0 2 17.236 18
 3 0 0 16.453 17
 1 0 3 15.267 6
 2 1 2 14.748 15
 2 2 0 14.248 18
 3 0 2 13.587 2
 2 0 3 13.459 6
 3 1 1 13.17 9
 2 2 2 12.263 2
 2 1 3 12.169 3
 0 0 4 12.042 2
 4 0 1 11.952 7
 3 1 2 11.902 6
 1 1 4 11.091 6
 3 2 1 11.024 7
 4 1 0 10.771 8

# End of data set 1501811


