##############################################################################
#                                                                            #
# Ba-Mn-O          # BaMnO3 ht5                                    #  314426 #
#                                                                            #
##############################################################################
#                                                                            #
#                           Pearson's Crystal Data                           #
#      Crystal Structure Database for Inorganic Compounds (on DVD)           #
#                              Release 2017/18                               #
#                  Editors: Pierre Villars and Karin Cenzual                 #
#                                                                            #
#   Copyright (c) ASM International & Material Phases Data System (MPDS),    #
# Switzerland & National Institute for Materials Science (NIMS), Japan, 2017 #
#                   All rights reserved. Version 2017.08                     #
#                                                                            #
#   This copy of Pearson's Crystal Data is licensed to:                      #
#   University of Alberta, Chemistry Department, 1-5 Installations License         #
#                                                                            #
##############################################################################

data_314426
_audit_creation_date                     2017-12-01
_audit_creation_method
;
Pearson's Crystal Data browser
;
#_database_code_PCD                      314426

# Entry summary

_chemical_formula_structural             'Ba Mn O~3~'
_chemical_formula_sum                    'Ba Mn O3'
_chemical_name_mineral                   ?
_chemical_compound_source                ?
_chemical_name_structure_type            BaMnO~3~,hP20,194
_chemical_formula_weight                 240.3

# Bibliographic data

_publ_section_title
;
Structure Relations of Hexagonal Perovskite-Like Compounds ABX~3~ at High Pressure
;
_journal_coden_ASTM                      JUPSAU
_journal_name_full                       'J. Phys. Soc. Jpn.'
_journal_year                            1969
_journal_volume                          26
_journal_page_first                      993
_journal_page_last                       999
_journal_language                        English
loop_
 _publ_author_name
 _publ_author_address
'Syono Y.'
;
Tokyo University
Institute of Solid State Physics
Tokyo / Tokyo
Japan
;
'Akimoto S.I.'
;
Tokyo University
Institute of Solid State Physics
Tokyo / Tokyo
Japan
;
'Kohn K.'
;
Tokyo University
Department of Physics
Tokyo / Tokyo
Japan
;

# Standardized crystallographic data

_cell_length_a                           5.645
_cell_length_b                           5.645
_cell_length_c                           9.264
_cell_angle_alpha                        90
_cell_angle_beta                         90
_cell_angle_gamma                        120
_cell_volume                             255.7
_cell_formula_units_Z                    4
_space_group_IT_number                   194
_space_group_name_H-M_alt                'P 63/m m c'
loop_
 _space_group_symop_id
 _space_group_symop_operation_xyz
 1 'x, y, z'
 2 '-x+y, -x, 1/2-z'
 3 '-x+y, -x, z'
 4 '-x+y, y, 1/2-z'
 5 '-x+y, y, z'
 6 '-x, -x+y, -z'
 7 '-x, -x+y, 1/2+z'
 8 '-x, -y, -z'
 9 '-x, -y, 1/2+z'
 10 '-y, -x, 1/2-z'
 11 '-y, -x, z'
 12 '-y, x-y, 1/2-z'
 13 '-y, x-y, z'
 14 'x, x-y, 1/2-z'
 15 'x, x-y, z'
 16 'x, y, 1/2-z'
 17 'x-y, -y, -z'
 18 'x-y, -y, 1/2+z'
 19 'x-y, x, -z'
 20 'x-y, x, 1/2+z'
 21 'y, -x+y, -z'
 22 'y, -x+y, 1/2+z'
 23 'y, x, -z'
 24 'y, x, 1/2+z'

# Atomic positions taken from type-defining entry

loop_
 _atom_type_symbol
 O
 Mn
 Ba
loop_
 _atom_site_label
 _atom_site_type_symbol
 _atom_site_symmetry_multiplicity
 _atom_site_Wyckoff_symbol
 _atom_site_fract_x
 _atom_site_fract_y
 _atom_site_fract_z
 _atom_site_occupancy
 O1 O 6 h 0.16667 0.33333 0.25 1
 O2 O 6 g 0.5 0 0 1
 Mn1 Mn 4 f 0.333333 0.666667 0.11 1
 Ba1 Ba 2 d 0.333333 0.666667 0.75 1
 Ba2 Ba 2 a 0 0 0 1


_exptl_crystal_colour                    ?
_exptl_crystal_density_meas              ?
_exptl_crystal_density_diffrn            6.24
_cell_measurement_temperature            ?
_cell_measurement_radiation              'X-rays, Cu Ka'
_cell_measurement_reflns_used            ?
_diffrn_ambient_temperature              ?
_diffrn_measurement_device               film
_diffrn_measurement_device_type          ?
_diffrn_radiation_type                   ?
_diffrn_reflns_number                    ?
_exptl_absorpt_coefficient_mu            ?
_exptl_absorpt_correction_type           ?
_computing_structure_solution            ?
_refine_ls_number_parameters             ?
_refine_ls_number_reflns                 ?
_refine_ls_R_factor_gt                   ?
_refine_ls_wR_factor_gt                  ?

# Published diffraction lines

loop_
 _refln_index_h
 _refln_index_k
 _refln_index_l
 _refln_d_spacing
 _refln_intensity_meas
 1 0 2 33.62 7
 1 1 0 28.25 8
 1 0 3 26.1 5
 2 0 1 23.64 2
 0 0 4 23.14 3
 2 0 2 21.62 7
 2 0 3 19.159 5
 1 1 4 17.895 2
 1 0 5 17.317 2
 2 1 2 17.163 3
 2 0 4 16.817 2
 3 0 0 16.3 5
 2 1 3 15.85 3
 1 0 6 14.737 2
 2 1 4 14.435 2
 2 2 0 14.118 5

# End of data set 314426


