##############################################################################
#                                                                            #
# Ba-Si            # BaSi2                                         #  453602 #
#                                                                            #
##############################################################################
#                                                                            #
#                           Pearson's Crystal Data                           #
#      Crystal Structure Database for Inorganic Compounds (on DVD)           #
#                              Release 2017/18                               #
#                  Editors: Pierre Villars and Karin Cenzual                 #
#                                                                            #
#   Copyright (c) ASM International & Material Phases Data System (MPDS),    #
# Switzerland & National Institute for Materials Science (NIMS), Japan, 2017 #
#                   All rights reserved. Version 2017.08                     #
#                                                                            #
#   This copy of Pearson's Crystal Data is licensed to:                      #
#   University of Alberta, Chemistry Department, 1-5 Installations License         #
#                                                                            #
##############################################################################

data_453602
_audit_creation_date                     2017-12-01
_audit_creation_method
;
Pearson's Crystal Data browser
;
#_database_code_PCD                      453602

# Entry summary

_chemical_formula_structural             'Ba Si~2~'
_chemical_formula_sum                    'Ba Si2'
_chemical_name_mineral                   ?
_chemical_compound_source                ?
_chemical_name_structure_type            AlB~2~,hP3,191
_chemical_formula_weight                 193.5

# Bibliographic data

_publ_section_title
'Crystal structure of BaSi~2~ and CeGe~2~'                                    
_journal_coden_ASTM                      DUKRA4
_journal_name_full                       'Dopov. Akad. Nauk Ukr. RSR'
_journal_year                            1959
_journal_volume                          ?
_journal_page_first                      294
_journal_page_last                       297
_journal_language                        Ukrainian
loop_
 _publ_author_name
 _publ_author_address
'Gladyshevskii E.I.'
;
Lviv Ivan Franko National University
Lviv
Ukraine
;

# Standardized crystallographic data

_cell_length_a                           4.39
_cell_length_b                           4.39
_cell_length_c                           4.83
_cell_angle_alpha                        90
_cell_angle_beta                         90
_cell_angle_gamma                        120
_cell_volume                             80.61
_cell_formula_units_Z                    1
_space_group_IT_number                   191
_space_group_name_H-M_alt                'P 6/m m m'
loop_
 _space_group_symop_id
 _space_group_symop_operation_xyz
 1 'x, y, z'
 2 '-x+y, -x, -z'
 3 '-x+y, -x, z'
 4 '-x+y, y, -z'
 5 '-x+y, y, z'
 6 '-x, -x+y, -z'
 7 '-x, -x+y, z'
 8 '-x, -y, -z'
 9 '-x, -y, z'
 10 '-y, -x, -z'
 11 '-y, -x, z'
 12 '-y, x-y, -z'
 13 '-y, x-y, z'
 14 'x, x-y, -z'
 15 'x, x-y, z'
 16 'x, y, -z'
 17 'x-y, -y, -z'
 18 'x-y, -y, z'
 19 'x-y, x, -z'
 20 'x-y, x, z'
 21 'y, -x+y, -z'
 22 'y, -x+y, z'
 23 'y, x, -z'
 24 'y, x, z'
loop_
 _atom_type_symbol
 Si
 Ba
loop_
 _atom_site_label
 _atom_site_type_symbol
 _atom_site_symmetry_multiplicity
 _atom_site_Wyckoff_symbol
 _atom_site_fract_x
 _atom_site_fract_y
 _atom_site_fract_z
 _atom_site_occupancy
 Si Si 2 d 0.333333 0.666667 0.5 1
 Ba Ba 1 a 0 0 0 1


_exptl_crystal_colour                    ?
_exptl_crystal_density_meas              3.87
_exptl_crystal_density_diffrn            3.99
_cell_measurement_temperature            ?
_cell_measurement_radiation              'X-rays, Cr K'
_cell_measurement_reflns_used            ?
_diffrn_ambient_temperature              ?
_diffrn_measurement_device               film
_diffrn_measurement_device_type          ?
_diffrn_radiation_type                   'X-rays, Cr K'
_diffrn_reflns_number                    ?
_exptl_absorpt_coefficient_mu            ?
_exptl_absorpt_correction_type           ?
_computing_structure_solution            'starting values from the literature'
_refine_ls_number_parameters             ?
_refine_ls_number_reflns                 ?
_refine_ls_R_factor_gt                   ?
_refine_ls_wR_factor_gt                  ?
_pd_proc_ls_proof_R_factor               ?
_pd_proc_ls_proof_wR_factor              ?
_refine_ls_R_I_factor                    ?

# Published diffraction lines

loop_
 _refln_index_h
 _refln_index_k
 _refln_index_l
 _refln_d_spacing
 _refln_intensity_meas
 0 0 1 0.56 5
 1 0 0 0.91 30
 1 0 1 1.47 100
 0 0 2 2.24 10
 1 1 0 2.73 30
 1 0 2 3.16 20
 1 1 1 3.29 10
 2 0 0 3.64 10
 2 0 1 4.2 30
 1 1 2 4.97 40
 2 0 2 5.88 10
 1 0 3 5.96 20
 2 1 0 6.37 10
 2 1 1 6.93 40
 1 1 3 7.76 10
 3 0 0 8.17 20
 2 1 2 8.67 50
 0 0 4 8.98 10

# End of data set 453602


