##############################################################################
#                                                                            #
# Ba-Se-Ta         # BaTaSe3                                       #  305123 #
#                                                                            #
##############################################################################
#                                                                            #
#                           Pearson's Crystal Data                           #
#      Crystal Structure Database for Inorganic Compounds (on DVD)           #
#                              Release 2017/18                               #
#                  Editors: Pierre Villars and Karin Cenzual                 #
#                                                                            #
#   Copyright (c) ASM International & Material Phases Data System (MPDS),    #
# Switzerland & National Institute for Materials Science (NIMS), Japan, 2017 #
#                   All rights reserved. Version 2017.08                     #
#                                                                            #
#   This copy of Pearson's Crystal Data is licensed to:                      #
#   University of Alberta, Chemistry Department, 1-5 Installations License         #
#                                                                            #
##############################################################################

data_305123
_audit_creation_date                     2017-12-01
_audit_creation_method
;
Pearson's Crystal Data browser
;
#_database_code_PCD                      305123

# Entry summary

_chemical_formula_structural             'Ba Ta Se~3~'
_chemical_formula_sum                    'Ba Se3 Ta'
_chemical_name_mineral                   ?
_chemical_compound_source                ?
_chemical_name_structure_type            BaNiO~3~,hP10,194
_chemical_formula_weight                 555.2

# Bibliographic data

_publ_section_title                      'Selenides of the type ABSe~3~'
_journal_coden_ASTM                      RJICAQ
_journal_name_full                       'Russ. J. Inorg. Chem.'
_journal_year                            1964
_journal_volume                          9
_journal_page_first                      1090
_journal_page_last                       1091
_journal_language                        English
loop_
 _publ_author_name
 _publ_author_address
'Aslanov L.A.'
;
Moscow M.V. Lomonosov State University
Moscow
Russia
;

# Standardized crystallographic data

_cell_length_a                           7.134
_cell_length_b                           7.134
_cell_length_c                           5.987
_cell_angle_alpha                        90
_cell_angle_beta                         90
_cell_angle_gamma                        120
_cell_volume                             263.9
_cell_formula_units_Z                    2
_space_group_IT_number                   194
_space_group_name_H-M_alt                'P 63/m m c'
loop_
 _space_group_symop_id
 _space_group_symop_operation_xyz
 1 'x, y, z'
 2 '-x+y, -x, 1/2-z'
 3 '-x+y, -x, z'
 4 '-x+y, y, 1/2-z'
 5 '-x+y, y, z'
 6 '-x, -x+y, -z'
 7 '-x, -x+y, 1/2+z'
 8 '-x, -y, -z'
 9 '-x, -y, 1/2+z'
 10 '-y, -x, 1/2-z'
 11 '-y, -x, z'
 12 '-y, x-y, 1/2-z'
 13 '-y, x-y, z'
 14 'x, x-y, 1/2-z'
 15 'x, x-y, z'
 16 'x, y, 1/2-z'
 17 'x-y, -y, -z'
 18 'x-y, -y, 1/2+z'
 19 'x-y, x, -z'
 20 'x-y, x, 1/2+z'
 21 'y, -x+y, -z'
 22 'y, -x+y, 1/2+z'
 23 'y, x, -z'
 24 'y, x, 1/2+z'

# Atomic positions taken from type-defining entry

loop_
 _atom_type_symbol
 Se
 Ba
 Ta
loop_
 _atom_site_label
 _atom_site_type_symbol
 _atom_site_symmetry_multiplicity
 _atom_site_Wyckoff_symbol
 _atom_site_fract_x
 _atom_site_fract_y
 _atom_site_fract_z
 _atom_site_occupancy
 Se1 Se 6 h 0.1462 0.2924 0.25 1
 Ba1 Ba 2 d 0.333333 0.666667 0.75 1
 Ta1 Ta 2 a 0 0 0 1


_exptl_crystal_colour                    ?
_exptl_crystal_density_meas              6.70
_exptl_crystal_density_diffrn            6.99
_cell_measurement_temperature            ?
_cell_measurement_radiation              'X-rays, Cu Ka'
_cell_measurement_reflns_used            ?
_diffrn_ambient_temperature              ?
_diffrn_measurement_device               'Guinier film'
_diffrn_measurement_device_type          ?
_diffrn_radiation_type                   ?
_diffrn_reflns_number                    ?
_exptl_absorpt_coefficient_mu            ?
_exptl_absorpt_correction_type           ?
_computing_structure_solution            ?
_refine_ls_number_parameters             ?
_refine_ls_number_reflns                 ?
_refine_ls_R_factor_gt                   ?
_refine_ls_wR_factor_gt                  ?

# Published diffraction lines

loop_
 _refln_index_h
 _refln_index_k
 _refln_index_l
 _refln_d_spacing
 _refln_intensity_meas
 1 0 0 0.155 10
 1 0 1 0.321 2
 1 1 0 0.466 8
 0 0 2 0.661 2
 2 0 1 0.789 10
 1 0 2 0.819 4
 2 1 0 1.089 3
 1 1 2 1.129 1
 2 1 1 1.258 1
 2 0 2 1.284 4
 3 0 0 1.401 2
 1 0 3 1.649 1
 2 1 2 1.854 2
 2 2 0 1.87 4
 3 1 0 2.025 1
 2 0 3 2.112 2
 2 2 2 2.535 1
 2 1 3 2.578 1
 0 0 4 2.655 2
 3 1 2 2.69 2

# End of data set 305123


