##############################################################################
#                                                                            #
# Ba-O-Tc          # BaTcO3                                        #  559869 #
#                                                                            #
##############################################################################
#                                                                            #
#                           Pearson's Crystal Data                           #
#      Crystal Structure Database for Inorganic Compounds (on DVD)           #
#                              Release 2017/18                               #
#                  Editors: Pierre Villars and Karin Cenzual                 #
#                                                                            #
#   Copyright (c) ASM International & Material Phases Data System (MPDS),    #
# Switzerland & National Institute for Materials Science (NIMS), Japan, 2017 #
#                   All rights reserved. Version 2017.08                     #
#                                                                            #
#   This copy of Pearson's Crystal Data is licensed to:                      #
#   University of Alberta, Chemistry Department, 1-5 Installations License         #
#                                                                            #
##############################################################################

data_559869
_audit_creation_date                     2017-12-04
_audit_creation_method
;
Pearson's Crystal Data browser
;
#_database_code_PCD                      559869

# Entry summary

_chemical_formula_structural             'Ba Tc O~3~'
_chemical_formula_sum                    'Ba O3 Tc'
_chemical_name_mineral                   ?
_chemical_compound_source                ?
_chemical_name_structure_type            BaTiO~3~,hP30,194
_chemical_formula_weight                 283.3

# Bibliographic data

_publ_section_title
'Crystal chemistry of some technetium-containing oxides'                      
_journal_coden_ASTM                      JINCAO
_journal_name_full                       'J. Inorg. Nucl. Chem.'
_journal_year                            1964
_journal_volume                          26
_journal_page_first                      2075
_journal_page_last                       2086
_journal_language                        English
loop_
 _publ_author_name
 _publ_author_address
'M\"uller O.'
;
Pennsylvania University Park University
Materials Research Laboratory
University Park
U.S.A. Pennsylvania
;
'White W.B.'
;
Pennsylvania University Park University
Materials Research Laboratory
University Park
U.S.A. Pennsylvania
;
'Roy R.'
;
Pennsylvania University Park University
Materials Research Laboratory
University Park
U.S.A. Pennsylvania
;

# Standardized crystallographic data

_cell_length_a                           5.758
_cell_length_b                           5.758
_cell_length_c                           14.046
_cell_angle_alpha                        90
_cell_angle_beta                         90
_cell_angle_gamma                        120
_cell_volume                             403.3
_cell_formula_units_Z                    6
_space_group_IT_number                   194
_space_group_name_H-M_alt                'P 63/m m c'
loop_
 _space_group_symop_id
 _space_group_symop_operation_xyz
 1 'x, y, z'
 2 '-x+y, -x, 1/2-z'
 3 '-x+y, -x, z'
 4 '-x+y, y, 1/2-z'
 5 '-x+y, y, z'
 6 '-x, -x+y, -z'
 7 '-x, -x+y, 1/2+z'
 8 '-x, -y, -z'
 9 '-x, -y, 1/2+z'
 10 '-y, -x, 1/2-z'
 11 '-y, -x, z'
 12 '-y, x-y, 1/2-z'
 13 '-y, x-y, z'
 14 'x, x-y, 1/2-z'
 15 'x, x-y, z'
 16 'x, y, 1/2-z'
 17 'x-y, -y, -z'
 18 'x-y, -y, 1/2+z'
 19 'x-y, x, -z'
 20 'x-y, x, 1/2+z'
 21 'y, -x+y, -z'
 22 'y, -x+y, 1/2+z'
 23 'y, x, -z'
 24 'y, x, 1/2+z'

# Atomic positions taken from type-defining entry

loop_
 _atom_type_symbol
 O
 Ba
 Tc
loop_
 _atom_site_label
 _atom_site_type_symbol
 _atom_site_symmetry_multiplicity
 _atom_site_Wyckoff_symbol
 _atom_site_fract_x
 _atom_site_fract_y
 _atom_site_fract_z
 _atom_site_occupancy
 O1 O 12 k 0.1651 0.3302 0.5802 1
 O2 O 6 h 0.5185 0.037 0.25 1
 Ba1 Ba 4 f 0.333333 0.666667 0.09671 1
 Tc1 Tc 4 f 0.333333 0.666667 0.65367 1
 Ba2 Ba 2 b 0 0 0.25 1
 Tc2 Tc 2 a 0 0 0 1


_exptl_crystal_colour                    ?
_exptl_crystal_density_meas              ?
_exptl_crystal_density_diffrn            7.00
_cell_measurement_temperature            ?
_cell_measurement_radiation              'X-rays, Cu Ka'
_cell_measurement_reflns_used            ?
_diffrn_ambient_temperature              ?
_diffrn_measurement_device               'automatic diffractometer'
_diffrn_measurement_device_type          ?
_diffrn_radiation_type                   ?
_diffrn_reflns_number                    ?
_exptl_absorpt_coefficient_mu            ?
_exptl_absorpt_correction_type           ?
_computing_structure_solution            ?
_refine_ls_number_parameters             ?
_refine_ls_number_reflns                 ?
_refine_ls_R_factor_gt                   ?
_refine_ls_wR_factor_gt                  ?

# End of data set 559869


