##############################################################################
#                                                                            #
# Ba-S-Ti          # BaTiS3                                        #  544967 #
#                                                                            #
##############################################################################
#                                                                            #
#                           Pearson's Crystal Data                           #
#      Crystal Structure Database for Inorganic Compounds (on DVD)           #
#                              Release 2017/18                               #
#                  Editors: Pierre Villars and Karin Cenzual                 #
#                                                                            #
#   Copyright (c) ASM International & Material Phases Data System (MPDS),    #
# Switzerland & National Institute for Materials Science (NIMS), Japan, 2017 #
#                   All rights reserved. Version 2017.08                     #
#                                                                            #
#   This copy of Pearson's Crystal Data is licensed to:                      #
#   University of Alberta, Chemistry Department, 1-5 Installations License         #
#                                                                            #
##############################################################################

data_544967
_audit_creation_date                     2017-12-04
_audit_creation_method
;
Pearson's Crystal Data browser
;
#_database_code_PCD                      544967

# Entry summary

_chemical_formula_structural             'Ba Ti S~3~'
_chemical_formula_sum                    'Ba S3 Ti'
_chemical_name_mineral                   ?
_chemical_compound_source                ?
_chemical_name_structure_type            BaNiO~3~,hP10,194
_chemical_formula_weight                 281.4

# Bibliographic data

_publ_section_title
'Ternary sulphides of barium and tantalum, titanium, zirconium'               
_journal_coden_ASTM                      RJICAQ
_journal_name_full                       'Russ. J. Inorg. Chem.'
_journal_year                            1964
_journal_volume                          9
_journal_page_first                      1317
_journal_page_last                       1319
_journal_language                        English
loop_
 _publ_author_name
 _publ_author_address
'Aslanov L.A.'
;
Moscow M.V. Lomonosov State University
Moscow
Russia
;
'Kovba L.M.'
;
Moscow M.V. Lomonosov State University
Moscow
Russia
;

# Standardized crystallographic data

_cell_length_a                           6.781
_cell_length_b                           6.781
_cell_length_c                           5.686
_cell_angle_alpha                        90
_cell_angle_beta                         90
_cell_angle_gamma                        120
_cell_volume                             226.4
_cell_formula_units_Z                    2
_space_group_IT_number                   194
_space_group_name_H-M_alt                'P 63/m m c'
loop_
 _space_group_symop_id
 _space_group_symop_operation_xyz
 1 'x, y, z'
 2 '-x+y, -x, 1/2-z'
 3 '-x+y, -x, z'
 4 '-x+y, y, 1/2-z'
 5 '-x+y, y, z'
 6 '-x, -x+y, -z'
 7 '-x, -x+y, 1/2+z'
 8 '-x, -y, -z'
 9 '-x, -y, 1/2+z'
 10 '-y, -x, 1/2-z'
 11 '-y, -x, z'
 12 '-y, x-y, 1/2-z'
 13 '-y, x-y, z'
 14 'x, x-y, 1/2-z'
 15 'x, x-y, z'
 16 'x, y, 1/2-z'
 17 'x-y, -y, -z'
 18 'x-y, -y, 1/2+z'
 19 'x-y, x, -z'
 20 'x-y, x, 1/2+z'
 21 'y, -x+y, -z'
 22 'y, -x+y, 1/2+z'
 23 'y, x, -z'
 24 'y, x, 1/2+z'
loop_
 _atom_type_symbol
 S
 Ba
 Ti
loop_
 _atom_site_label
 _atom_site_type_symbol
 _atom_site_symmetry_multiplicity
 _atom_site_Wyckoff_symbol
 _atom_site_fract_x
 _atom_site_fract_y
 _atom_site_fract_z
 _atom_site_occupancy
 S S 6 h 0.167 0.334 0.25 1
 Ba Ba 2 d 0.333333 0.666667 0.75 1
 Ti Ti 2 a 0 0 0 1


_exptl_crystal_colour                    black
_exptl_crystal_density_meas              4.0
_exptl_crystal_density_diffrn            4.13
_cell_measurement_temperature            ?
_cell_measurement_radiation              'X-rays, Cu Ka'
_cell_measurement_reflns_used            ?
_diffrn_ambient_temperature              ?
_diffrn_measurement_device               film
_diffrn_measurement_device_type          ?
_diffrn_radiation_type                   'X-rays, Cu Ka'
_diffrn_reflns_number                    ?
_exptl_absorpt_coefficient_mu            ?
_exptl_absorpt_correction_type           ?
_computing_structure_solution            'starting values from the literature'
_refine_ls_number_parameters             ?
_refine_ls_number_reflns                 ?
_refine_ls_R_factor_gt                   0.23
_refine_ls_wR_factor_gt                  ?
_pd_proc_ls_proof_R_factor               ?
_pd_proc_ls_proof_wR_factor              ?
_refine_ls_R_I_factor                    ?

# Published diffraction lines

loop_
 _refln_index_h
 _refln_index_k
 _refln_index_l
 _refln_d_spacing
 _refln_intensity_meas
 1 0 1 0.354 3.2
 1 1 0 0.516 17.5
 3 0 0 0.689 4.1
 0 0 2 0.74 8.9
 2 0 1 0.866 20.8
 1 0 2 0.905 4.5
 1 1 2 1.252 2.0
 2 1 1 1.385 5.1
 2 0 2 1.417 7.4
 3 0 0 1.551 15.2
 1 0 3 1.822 1.8
 2 1 2 1.936 2.3
 2 2 0 2.071 46.7
 2 0 3 2.336 6.8
 3 1 1 2.428 2.2
 2 2 2 2.808 6.3
 2 1 3 2.857 2.0
 0 0 4 2.944 27.5
 1 1 4 3.46 14.2
 4 0 2 3.485 14.2
 2 0 4 3.63 6.3
 3 1 3 3.895 0.9
 3 2 2 4.015 1.3
 4 0 3 4.409 2.4
 5 0 1 4.595 4.0
 3 3 0 4.651 3.5
 2 2 4 5.017 11.5

# End of data set 544967


