##############################################################################
#                                                                            #
# Ba-Ge-O-Ti       # BaTiGe3O9 ht                                  #  377597 #
#                                                                            #
##############################################################################
#                                                                            #
#                           Pearson's Crystal Data                           #
#      Crystal Structure Database for Inorganic Compounds (on DVD)           #
#                              Release 2017/18                               #
#                  Editors: Pierre Villars and Karin Cenzual                 #
#                                                                            #
#   Copyright (c) ASM International & Material Phases Data System (MPDS),    #
# Switzerland & National Institute for Materials Science (NIMS), Japan, 2017 #
#                   All rights reserved. Version 2017.08                     #
#                                                                            #
#   This copy of Pearson's Crystal Data is licensed to:                      #
#   University of Alberta, Chemistry Department, 1-5 Installations License         #
#                                                                            #
##############################################################################

data_377597
_audit_creation_date                     2017-12-01
_audit_creation_method
;
Pearson's Crystal Data browser
;
#_database_code_PCD                      377597

# Entry summary

_chemical_formula_structural             'Ba Ti Ge~3~ O~9~'
_chemical_formula_sum                    'Ba Ge3 O9 Ti'
_chemical_name_mineral                   ?
_chemical_compound_source                ?
_chemical_name_structure_type            BaTiSi~3~O~9~,hP28,188
_chemical_formula_weight                 547.0

# Bibliographic data

_publ_section_title
;
Contribution a l'\'etude des silicates et germanates substitu\'es de type b\'enitoite
;
_journal_coden_ASTM                      CHDCAQ
_journal_name_full                       'C. R. Seances Acad. Sci., Ser. C'
_journal_year                            1970
_journal_volume                          270
_journal_page_first                      1003
_journal_page_last                       1006
_journal_language                        French
loop_
 _publ_author_name
 _publ_author_address
'Choisnet J.'
;
Grenoble
France
;
'Deschanvres A.'
;
Caen University
Caen
France
;
'Raveau B.'
;
Caen University
Caen
France
;

# Standardized crystallographic data

_cell_length_a                           6.77
_cell_length_b                           6.77
_cell_length_c                           10.02
_cell_angle_alpha                        90
_cell_angle_beta                         90
_cell_angle_gamma                        120
_cell_volume                             397.7
_cell_formula_units_Z                    2
_space_group_IT_number                   188
_space_group_name_H-M_alt                'P -6 c 2'
loop_
 _space_group_symop_id
 _space_group_symop_operation_xyz
 1 'x, y, z'
 2 '-x+y, -x, 1/2-z'
 3 '-x+y, -x, z'
 4 '-x+y, y, -z'
 5 '-x+y, y, 1/2+z'
 6 '-y, -x, -z'
 7 '-y, -x, 1/2+z'
 8 '-y, x-y, 1/2-z'
 9 '-y, x-y, z'
 10 'x, x-y, -z'
 11 'x, x-y, 1/2+z'
 12 'x, y, 1/2-z'

# Atomic positions taken from type-defining entry

loop_
 _atom_type_symbol
 O
 Ge
 Ba
 Ti
loop_
 _atom_site_label
 _atom_site_type_symbol
 _atom_site_symmetry_multiplicity
 _atom_site_Wyckoff_symbol
 _atom_site_fract_x
 _atom_site_fract_y
 _atom_site_fract_z
 _atom_site_occupancy
 O1 O 12 l 0.24533 0.00886 0.11275 1
 O2 O 6 k 0.07985 0.60592 0.25 1
 Ge1 Ge 6 k 0.11505 0.37726 0.25 1
 Ba1 Ba 2 e 0.666667 0.333333 0 1
 Ti1 Ti 2 a 0 0 0 1


_exptl_crystal_colour                    ?
_exptl_crystal_density_meas              ?
_exptl_crystal_density_diffrn            4.57
_cell_measurement_temperature            ?
_cell_measurement_radiation              'X-rays, Cu Ka'
_cell_measurement_reflns_used            ?
_diffrn_ambient_temperature              ?
_diffrn_measurement_device               film
_diffrn_measurement_device_type          ?
_diffrn_radiation_type                   ?
_diffrn_reflns_number                    ?
_exptl_absorpt_coefficient_mu            ?
_exptl_absorpt_correction_type           ?
_computing_structure_solution            ?
_refine_ls_number_parameters             ?
_refine_ls_number_reflns                 ?
_refine_ls_R_factor_gt                   ?
_refine_ls_wR_factor_gt                  ?

# End of data set 377597


