##############################################################################
#                                                                            #
# Ba-O-Ti          # BaTiO2.85 6H                                  # 1501690 #
#                                                                            #
##############################################################################
#                                                                            #
#                           Pearson's Crystal Data                           #
#      Crystal Structure Database for Inorganic Compounds (on DVD)           #
#                              Release 2017/18                               #
#                  Editors: Pierre Villars and Karin Cenzual                 #
#                                                                            #
#   Copyright (c) ASM International & Material Phases Data System (MPDS),    #
# Switzerland & National Institute for Materials Science (NIMS), Japan, 2017 #
#                   All rights reserved. Version 2017.08                     #
#                                                                            #
#   This copy of Pearson's Crystal Data is licensed to:                      #
#   University of Alberta, Chemistry Department, 1-5 Installations License         #
#                                                                            #
##############################################################################

data_1501690
_audit_creation_date                     2017-12-05
_audit_creation_method
;
Pearson's Crystal Data browser
;
#_database_code_PCD                      1501690

# Entry summary

_chemical_formula_structural             'Ba Ti O~3~'
_chemical_formula_sum                    'Ba O3 Ti'
_chemical_name_mineral                   ?
_chemical_compound_source                ?
_chemical_name_structure_type            BaTiO~3~,hP30,194
_chemical_formula_weight                 233.2

# Bibliographic data

_publ_section_title                      'Refinement of Hexagonal BaTiO~3~'
_journal_coden_ASTM                      ACSCEE
_journal_name_full                       'Acta Crystallogr. C'
_journal_year                            1994
_journal_volume                          50
_journal_page_first                      160
_journal_page_last                       161
_journal_language                        English
loop_
 _publ_author_name
 _publ_author_address
'Akimoto J.'
;
National Institute of Materials and Chemical Research
Tsukuba / Ibaraki
Japan
;
'Gotoh Y.'
;
National Institute of Materials and Chemical Research
Tsukuba / Ibaraki
Japan
;
'Oosawa Y.'
;
National Institute of Materials and Chemical Research
Tsukuba / Ibaraki
Japan
;

# Standardized crystallographic data

_cell_length_a                           5.7238
_cell_length_b                           5.7238
_cell_length_c                           13.9649
_cell_angle_alpha                        90
_cell_angle_beta                         90
_cell_angle_gamma                        120
_cell_volume                             396.2
_cell_formula_units_Z                    6
_space_group_IT_number                   194
_space_group_name_H-M_alt                'P 63/m m c'
loop_
 _space_group_symop_id
 _space_group_symop_operation_xyz
 1 'x, y, z'
 2 '-x+y, -x, 1/2-z'
 3 '-x+y, -x, z'
 4 '-x+y, y, 1/2-z'
 5 '-x+y, y, z'
 6 '-x, -x+y, -z'
 7 '-x, -x+y, 1/2+z'
 8 '-x, -y, -z'
 9 '-x, -y, 1/2+z'
 10 '-y, -x, 1/2-z'
 11 '-y, -x, z'
 12 '-y, x-y, 1/2-z'
 13 '-y, x-y, z'
 14 'x, x-y, 1/2-z'
 15 'x, x-y, z'
 16 'x, y, 1/2-z'
 17 'x-y, -y, -z'
 18 'x-y, -y, 1/2+z'
 19 'x-y, x, -z'
 20 'x-y, x, 1/2+z'
 21 'y, -x+y, -z'
 22 'y, -x+y, 1/2+z'
 23 'y, x, -z'
 24 'y, x, 1/2+z'
loop_
 _atom_type_symbol
 O
 Ba
 Ti
loop_
 _atom_site_label
 _atom_site_type_symbol
 _atom_site_symmetry_multiplicity
 _atom_site_Wyckoff_symbol
 _atom_site_fract_x
 _atom_site_fract_y
 _atom_site_fract_z
 _atom_site_occupancy
 O2 O 12 k 0.1651 0.3302 0.5802 1
 O1 O 6 h 0.5185 0.037 0.25 1
 Ba2 Ba 4 f 0.333333 0.666667 0.09671 1
 Ti2 Ti 4 f 0.333333 0.666667 0.65367 1
 Ba1 Ba 2 b 0 0 0.25 1
 Ti1 Ti 2 a 0 0 0 1


_exptl_crystal_colour                    colorless
_exptl_crystal_density_meas              ?
_exptl_crystal_density_diffrn            5.86
_cell_measurement_temperature            296
_cell_measurement_radiation              'X-rays, Mo Ka'
_cell_measurement_wavelength             0.71069
_cell_measurement_reflns_used            25
_diffrn_ambient_temperature              296
_diffrn_measurement_device               'automatic diffractometer'
_diffrn_measurement_device_type          'Rigaku AFC5S'
_diffrn_radiation_type                   'X-rays, Mo Ka'
_diffrn_radiation_wavelength             0.71069
_diffrn_reflns_number                    1280
_exptl_absorpt_coefficient_mu            17.57
_exptl_absorpt_correction_type           analytical
_computing_structure_solution            'starting values from the literature'
_refine_ls_number_parameters             22
_refine_ls_number_reflns                 591
_refine_ls_R_factor_gt                   0.037
_refine_ls_wR_factor_gt                  0.036

# End of data set 1501690


