##############################################################################
#                                                                            #
# Ba-S-V           # BaVS3 rt                                      #  558214 #
#                                                                            #
##############################################################################
#                                                                            #
#                           Pearson's Crystal Data                           #
#      Crystal Structure Database for Inorganic Compounds (on DVD)           #
#                              Release 2017/18                               #
#                  Editors: Pierre Villars and Karin Cenzual                 #
#                                                                            #
#   Copyright (c) ASM International & Material Phases Data System (MPDS),    #
# Switzerland & National Institute for Materials Science (NIMS), Japan, 2017 #
#                   All rights reserved. Version 2017.08                     #
#                                                                            #
#   This copy of Pearson's Crystal Data is licensed to:                      #
#   University of Alberta, Chemistry Department, 1-5 Installations License         #
#                                                                            #
##############################################################################

data_558214
_audit_creation_date                     2017-12-04
_audit_creation_method
;
Pearson's Crystal Data browser
;
#_database_code_PCD                      558214

# Entry summary

_chemical_formula_structural             'Ba V S~3~'
_chemical_formula_sum                    'Ba S3 V'
_chemical_name_mineral                   ?
_chemical_compound_source                ?
_chemical_name_structure_type            BaNiO~3~,hP10,194
_chemical_formula_weight                 284.5

# Bibliographic data

_publ_section_title
'Electrical, Magnetic and Structural Transitions of BaVS~3~'                  
_journal_coden_ASTM                      JUPSAU
_journal_name_full                       'J. Phys. Soc. Jpn.'
_journal_year                            1977
_journal_volume                          43
_journal_page_first                      1101
_journal_page_last                       1102
_journal_language                        English
loop_
 _publ_author_name
 _publ_author_address
'Takano M.'
;
Kobe Hyogo Konan University
Department of Chemistry
Kobe / Hyogo
Japan
;
'Kosugi H.'
;
Kobe Hyogo Konan University
Department of Chemistry
Kobe / Hyogo
Japan
;
'Nakanishi N.'
;
Kobe Hyogo Konan University
Department of Chemistry
Kobe / Hyogo
Japan
;
'Shimada M.'
;
Suita Osaka University
Institute of Scientific and Industrial Research
Suita / Osaka
Japan
;
'Wada T.'
;
Suita Osaka University
Institute of Scientific and Industrial Research
Suita / Osaka
Japan
;
'Koizumi M.'
;
Suita Osaka University
Institute of Scientific and Industrial Research
Suita / Osaka
Japan
;

# Standardized crystallographic data

_cell_length_a                           6.724
_cell_length_b                           6.724
_cell_length_c                           5.628
_cell_angle_alpha                        90
_cell_angle_beta                         90
_cell_angle_gamma                        120
_cell_volume                             220.4
_cell_formula_units_Z                    2
_space_group_IT_number                   194
_space_group_name_H-M_alt                'P 63/m m c'
loop_
 _space_group_symop_id
 _space_group_symop_operation_xyz
 1 'x, y, z'
 2 '-x+y, -x, 1/2-z'
 3 '-x+y, -x, z'
 4 '-x+y, y, 1/2-z'
 5 '-x+y, y, z'
 6 '-x, -x+y, -z'
 7 '-x, -x+y, 1/2+z'
 8 '-x, -y, -z'
 9 '-x, -y, 1/2+z'
 10 '-y, -x, 1/2-z'
 11 '-y, -x, z'
 12 '-y, x-y, 1/2-z'
 13 '-y, x-y, z'
 14 'x, x-y, 1/2-z'
 15 'x, x-y, z'
 16 'x, y, 1/2-z'
 17 'x-y, -y, -z'
 18 'x-y, -y, 1/2+z'
 19 'x-y, x, -z'
 20 'x-y, x, 1/2+z'
 21 'y, -x+y, -z'
 22 'y, -x+y, 1/2+z'
 23 'y, x, -z'
 24 'y, x, 1/2+z'

# Atomic positions taken from type-defining entry

loop_
 _atom_type_symbol
 S
 Ba
 V
loop_
 _atom_site_label
 _atom_site_type_symbol
 _atom_site_symmetry_multiplicity
 _atom_site_Wyckoff_symbol
 _atom_site_fract_x
 _atom_site_fract_y
 _atom_site_fract_z
 _atom_site_occupancy
 S1 S 6 h 0.1462 0.2924 0.25 1
 Ba1 Ba 2 d 0.333333 0.666667 0.75 1
 V1 V 2 a 0 0 0 1


_exptl_crystal_colour                    ?
_exptl_crystal_density_meas              ?
_exptl_crystal_density_diffrn            4.29
_cell_measurement_temperature            300
_cell_measurement_radiation              X-rays
_cell_measurement_reflns_used            ?
_diffrn_ambient_temperature              ?
_diffrn_measurement_device               film
_diffrn_measurement_device_type          ?
_diffrn_radiation_type                   ?
_diffrn_reflns_number                    ?
_exptl_absorpt_coefficient_mu            ?
_exptl_absorpt_correction_type           ?
_computing_structure_solution            ?
_refine_ls_number_parameters             ?
_refine_ls_number_reflns                 ?
_refine_ls_R_factor_gt                   ?
_refine_ls_wR_factor_gt                  ?

# End of data set 558214


