##############################################################################
#                                                                            #
# Ba-O-Si-Zr       # BaZrSi3O9                                     #  377418 #
#                                                                            #
##############################################################################
#                                                                            #
#                           Pearson's Crystal Data                           #
#      Crystal Structure Database for Inorganic Compounds (on DVD)           #
#                              Release 2017/18                               #
#                  Editors: Pierre Villars and Karin Cenzual                 #
#                                                                            #
#   Copyright (c) ASM International & Material Phases Data System (MPDS),    #
# Switzerland & National Institute for Materials Science (NIMS), Japan, 2017 #
#                   All rights reserved. Version 2017.08                     #
#                                                                            #
#   This copy of Pearson's Crystal Data is licensed to:                      #
#   University of Alberta, Chemistry Department, 1-5 Installations License         #
#                                                                            #
##############################################################################

data_377418
_audit_creation_date                     2017-12-01
_audit_creation_method
;
Pearson's Crystal Data browser
;
#_database_code_PCD                      377418

# Entry summary

_chemical_formula_structural             'Ba Zr Si~3~ O~9~'
_chemical_formula_sum                    'Ba O9 Si3 Zr'
_chemical_name_mineral                   ?
_chemical_compound_source                ?
_chemical_name_structure_type            BaTiSi~3~O~9~,hP28,188
_chemical_formula_weight                 456.8

# Bibliographic data

_publ_section_title
;
Pr\'eparation et donn\'ees cristallographiques des compos\'es BaZrSi~3~O~9~ et Ba~2~Zr~2~Si~3~O~12~
;
_journal_coden_ASTM                      CHDCAQ
_journal_name_full                       'C. R. Seances Acad. Sci., Ser. C'
_journal_year                            1973
_journal_volume                          276
_journal_page_first                      1029
_journal_page_last                       1031
_journal_language                        French
loop_
 _publ_author_name
 _publ_author_address
'Masse R.'
;
Centre National de la Recherche Scientifique (CNRS)
Laboratoire des Rayons X
Grenoble
France
;
'Durif A.'
;
Centre National de la Recherche Scientifique (CNRS)
Laboratoire des Rayons X
Grenoble
France
;

# Standardized crystallographic data

_cell_length_a                           6.755
_cell_length_b                           6.755
_cell_length_c                           9.98
_cell_angle_alpha                        90
_cell_angle_beta                         90
_cell_angle_gamma                        120
_cell_volume                             394.4
_cell_formula_units_Z                    2
_space_group_IT_number                   188
_space_group_name_H-M_alt                'P -6 c 2'
loop_
 _space_group_symop_id
 _space_group_symop_operation_xyz
 1 'x, y, z'
 2 '-x+y, -x, 1/2-z'
 3 '-x+y, -x, z'
 4 '-x+y, y, -z'
 5 '-x+y, y, 1/2+z'
 6 '-y, -x, -z'
 7 '-y, -x, 1/2+z'
 8 '-y, x-y, 1/2-z'
 9 '-y, x-y, z'
 10 'x, x-y, -z'
 11 'x, x-y, 1/2+z'
 12 'x, y, 1/2-z'

# Atomic positions taken from type-defining entry

loop_
 _atom_type_symbol
 O
 Si
 Ba
 Zr
loop_
 _atom_site_label
 _atom_site_type_symbol
 _atom_site_symmetry_multiplicity
 _atom_site_Wyckoff_symbol
 _atom_site_fract_x
 _atom_site_fract_y
 _atom_site_fract_z
 _atom_site_occupancy
 O1 O 12 l 0.24533 0.00886 0.11275 1
 O2 O 6 k 0.07985 0.60592 0.25 1
 Si1 Si 6 k 0.11505 0.37726 0.25 1
 Ba1 Ba 2 e 0.666667 0.333333 0 1
 Zr1 Zr 2 a 0 0 0 1


_exptl_crystal_colour                    ?
_exptl_crystal_density_meas              ?
_exptl_crystal_density_diffrn            3.85
_cell_measurement_temperature            ?
_cell_measurement_radiation              'X-rays, Cu Ka'
_cell_measurement_wavelength             1.5418
_pd_proc_wavelength                      1.5418
_cell_measurement_reflns_used            ?
_diffrn_ambient_temperature              ?
_diffrn_measurement_device               film
_diffrn_measurement_device_type          ?
_diffrn_radiation_type                   ?
_diffrn_reflns_number                    ?
_exptl_absorpt_coefficient_mu            ?
_exptl_absorpt_correction_type           ?
_computing_structure_solution            ?
_refine_ls_number_parameters             ?
_refine_ls_number_reflns                 ?
_refine_ls_R_factor_gt                   ?
_refine_ls_wR_factor_gt                  ?

# Published diffraction lines

loop_
 _refln_index_h
 _refln_index_k
 _refln_index_l
 _refln_d_spacing
 _refln_intensity_meas
 1 0 0 58.2 37.5
 0 0 2 49.8 9
 1 0 2 37.94 100
 1 1 0 33.75 37.5
 1 1 1 31.98 19
 2 0 0 29.24 34
 1 1 2 27.97 100
 2 0 2 25.23 4
 0 0 4 24.96 12.5
 1 0 4 22.97 6
 2 1 0 22.1 27
 2 1 1 21.58 6
 2 1 2 20.22 10
 1 1 4 20.09 34
 3 0 0 19.5 17.5
 2 0 4 19 15.5
 2 1 3 18.42 4
 3 0 2 18.17 22
 2 2 0 16.89 6
 1 2 4 16.56 18
 3 1 0 16.23 2
 1 0 6 16 23
 1 3 2 15.44 9
 3 0 4 15.37 11
 1 1 6 14.94 9.5

# End of data set 377418


