##############################################################################
#                                                                            #
# Be-Hf            # Be17Hf2 hex1                                  #  451350 #
#                                                                            #
##############################################################################
#                                                                            #
#                           Pearson's Crystal Data                           #
#      Crystal Structure Database for Inorganic Compounds (on DVD)           #
#                              Release 2017/18                               #
#                  Editors: Pierre Villars and Karin Cenzual                 #
#                                                                            #
#   Copyright (c) ASM International & Material Phases Data System (MPDS),    #
# Switzerland & National Institute for Materials Science (NIMS), Japan, 2017 #
#                   All rights reserved. Version 2017.08                     #
#                                                                            #
#   This copy of Pearson's Crystal Data is licensed to:                      #
#   University of Alberta, Chemistry Department, 1-5 Installations License         #
#                                                                            #
##############################################################################

data_451350
_audit_creation_date                     2017-12-01
_audit_creation_method
;
Pearson's Crystal Data browser
;
#_database_code_PCD                      451350

# Entry summary

_chemical_formula_structural             'Be~17~ Hf~2~'
_chemical_formula_sum                    'Be17 Hf2'
_chemical_name_mineral                   ?
_chemical_compound_source                ?
_chemical_name_structure_type            Th~2~Ni~17~,hP38,194
_chemical_formula_weight                 510.2

# Bibliographic data

_publ_section_title
'The beryllides of Ti, V, Cr, Zr, Nb, Mo, Hf, and Ta'                         
_journal_coden_ASTM                      ACCRA9
_journal_name_full                       'Acta Crystallogr.'
_journal_year                            1961
_journal_volume                          14
_journal_page_first                      63
_journal_page_last                       65
_journal_language                        English
loop_
 _publ_author_name
 _publ_author_address
'Zalkin A.'
;
California Livermore University
Lawrence Livermore Radiation Laboratory
Livermore
U.S.A. California
;
'Sands D.E.'
;
California Livermore University
Lawrence Livermore Radiation Laboratory
Livermore
U.S.A. California
;
'Bedford R.G.'
;
California Livermore University
Lawrence Livermore Radiation Laboratory
Livermore
U.S.A. California
;

# Standardized crystallographic data

_cell_length_a                           7.44
_cell_length_b                           7.44
_cell_length_c                           7.38
_cell_angle_alpha                        90
_cell_angle_beta                         90
_cell_angle_gamma                        120
_cell_volume                             353.78
_cell_formula_units_Z                    2
_space_group_IT_number                   194
_space_group_name_H-M_alt                'P 63/m m c'
loop_
 _space_group_symop_id
 _space_group_symop_operation_xyz
 1 'x, y, z'
 2 '-x+y, -x, 1/2-z'
 3 '-x+y, -x, z'
 4 '-x+y, y, 1/2-z'
 5 '-x+y, y, z'
 6 '-x, -x+y, -z'
 7 '-x, -x+y, 1/2+z'
 8 '-x, -y, -z'
 9 '-x, -y, 1/2+z'
 10 '-y, -x, 1/2-z'
 11 '-y, -x, z'
 12 '-y, x-y, 1/2-z'
 13 '-y, x-y, z'
 14 'x, x-y, 1/2-z'
 15 'x, x-y, z'
 16 'x, y, 1/2-z'
 17 'x-y, -y, -z'
 18 'x-y, -y, 1/2+z'
 19 'x-y, x, -z'
 20 'x-y, x, 1/2+z'
 21 'y, -x+y, -z'
 22 'y, -x+y, 1/2+z'
 23 'y, x, -z'
 24 'y, x, 1/2+z'

# Atomic positions taken from type-defining entry

loop_
 _atom_type_symbol
 Be
 Hf
loop_
 _atom_site_label
 _atom_site_type_symbol
 _atom_site_symmetry_multiplicity
 _atom_site_Wyckoff_symbol
 _atom_site_fract_x
 _atom_site_fract_y
 _atom_site_fract_z
 _atom_site_occupancy
 Be1 Be 12 k 0.1667 0.3334 0.0 1
 Be2 Be 12 j 0.0 0.3333 0.25 1
 Be3 Be 6 g 0.5 0 0 1
 Be4 Be 4 f 0.333333 0.666667 0.61 1
 Hf1 Hf 2 c 0.333333 0.666667 0.25 1
 Hf2 Hf 2 b 0 0 0.25 1


_exptl_crystal_colour                    ?
_exptl_crystal_density_meas              ?
_exptl_crystal_density_diffrn            4.79
_cell_measurement_temperature            ?
_cell_measurement_radiation              'X-rays, Cu Ka'
_cell_measurement_wavelength             1.5418
_pd_proc_wavelength                      1.5418
_cell_measurement_reflns_used            ?
_diffrn_ambient_temperature              ?
_diffrn_measurement_device               film
_diffrn_measurement_device_type          ?
_diffrn_radiation_type                   ?
_diffrn_reflns_number                    ?
_exptl_absorpt_coefficient_mu            ?
_exptl_absorpt_correction_type           ?
_computing_structure_solution            ?
_refine_ls_number_parameters             ?
_refine_ls_number_reflns                 ?
_refine_ls_R_factor_gt                   ?
_refine_ls_wR_factor_gt                  ?

# Published diffraction lines

loop_
 _refln_index_h
 _refln_index_k
 _refln_index_l
 _refln_d_spacing
 _refln_intensity_meas
 1 0 0 64.5 0.5
 1 0 1 48.2 5
 1 1 0 37.2 12
 0 0 2 36.8 3
 2 0 0 31.8 1
 2 0 1 29.5 10
 1 1 2 26.1 31
 2 1 0 24.3 3
 2 1 1 23.1 17
 1 0 3 22.9 9
 3 0 0 21.5 29
 2 1 2 20.3 5
 2 0 3 19.5 16
 2 2 0 18.6 72
 0 0 4 18.4 12

# End of data set 451350


