##############################################################################
#                                                                            #
# Be-Mo            # Be2Mo                                         #  456881 #
#                                                                            #
##############################################################################
#                                                                            #
#                           Pearson's Crystal Data                           #
#      Crystal Structure Database for Inorganic Compounds (on DVD)           #
#                              Release 2017/18                               #
#                  Editors: Pierre Villars and Karin Cenzual                 #
#                                                                            #
#   Copyright (c) ASM International & Material Phases Data System (MPDS),    #
# Switzerland & National Institute for Materials Science (NIMS), Japan, 2017 #
#                   All rights reserved. Version 2017.08                     #
#                                                                            #
#   This copy of Pearson's Crystal Data is licensed to:                      #
#   University of Alberta, Chemistry Department, 1-5 Installations License         #
#                                                                            #
##############################################################################

data_456881
_audit_creation_date                     2017-12-01
_audit_creation_method
;
Pearson's Crystal Data browser
;
#_database_code_PCD                      456881

# Entry summary

_chemical_formula_structural             'Be~2~ Mo'
_chemical_formula_sum                    'Be2 Mo'
_chemical_name_mineral                   ?
_chemical_compound_source                ?
_chemical_name_structure_type            MgZn~2~,hP12,194
_chemical_formula_weight                 114.0

# Bibliographic data

_publ_section_title
'Intermetallic Compounds in the System Molybdenum-Beryllium'                  
_journal_coden_ASTM                      TAIMAF
_journal_name_full
'Trans. Am. Inst. Min. Metall. Pet. Eng.'                                     
_journal_year                            1951
_journal_volume                          191
_journal_page_first                      637
_journal_page_last                       638
_journal_language                        English
loop_
 _publ_author_name
 _publ_author_address
'Gordon S.G.'
;
Los Alamos National Laboratory
Los Alamos
U.S.A. New Mexico
;
'McGurty J.A.'
;
Oak Ridge National Laboratory
Oak Ridge
U.S.A. Tennessee
;
'Klein G.E.'
;
Fairchild Engine and Airplane Corp.
Oak Ridge
U.S.A. Tennessee
;
'Koshuba W.J.'
;
Fairchild Engine and Airplane Corp.
Oak Ridge
U.S.A. Tennessee
;

# Standardized crystallographic data

_cell_length_a                           4.433
_cell_length_b                           4.433
_cell_length_c                           7.341
_cell_angle_alpha                        90
_cell_angle_beta                         90
_cell_angle_gamma                        120
_cell_volume                             124.93
_cell_formula_units_Z                    4
_space_group_IT_number                   194
_space_group_name_H-M_alt                'P 63/m m c'
loop_
 _space_group_symop_id
 _space_group_symop_operation_xyz
 1 'x, y, z'
 2 '-x+y, -x, 1/2-z'
 3 '-x+y, -x, z'
 4 '-x+y, y, 1/2-z'
 5 '-x+y, y, z'
 6 '-x, -x+y, -z'
 7 '-x, -x+y, 1/2+z'
 8 '-x, -y, -z'
 9 '-x, -y, 1/2+z'
 10 '-y, -x, 1/2-z'
 11 '-y, -x, z'
 12 '-y, x-y, 1/2-z'
 13 '-y, x-y, z'
 14 'x, x-y, 1/2-z'
 15 'x, x-y, z'
 16 'x, y, 1/2-z'
 17 'x-y, -y, -z'
 18 'x-y, -y, 1/2+z'
 19 'x-y, x, -z'
 20 'x-y, x, 1/2+z'
 21 'y, -x+y, -z'
 22 'y, -x+y, 1/2+z'
 23 'y, x, -z'
 24 'y, x, 1/2+z'

# Atomic positions taken from type-defining entry

loop_
 _atom_type_symbol
 Be
 Mo
loop_
 _atom_site_label
 _atom_site_type_symbol
 _atom_site_symmetry_multiplicity
 _atom_site_Wyckoff_symbol
 _atom_site_fract_x
 _atom_site_fract_y
 _atom_site_fract_z
 _atom_site_occupancy
 Be1 Be 6 h 0.1697 0.3394 0.25 1
 Mo1 Mo 4 f 0.333333 0.666667 0.5629 1
 Be2 Be 2 a 0 0 0 1


_exptl_crystal_colour                    ?
_exptl_crystal_density_meas              5.92
_exptl_crystal_density_diffrn            6.06
_cell_measurement_temperature            ?
_cell_measurement_radiation              'X-rays, Cu Ka'
_cell_measurement_wavelength             1.5418
_pd_proc_wavelength                      1.5418
_cell_measurement_reflns_used            ?
_diffrn_ambient_temperature              ?
_diffrn_measurement_device               film
_diffrn_measurement_device_type          ?
_diffrn_radiation_type                   ?
_diffrn_reflns_number                    ?
_exptl_absorpt_coefficient_mu            ?
_exptl_absorpt_correction_type           ?
_computing_structure_solution            ?
_refine_ls_number_parameters             ?
_refine_ls_number_reflns                 ?
_refine_ls_R_factor_gt                   ?
_refine_ls_wR_factor_gt                  ?

# Published diffraction lines

loop_
 _refln_index_h
 _refln_index_k
 _refln_index_l
 _refln_d_spacing
 _refln_intensity_meas
 1 1 0 22.1 0.8
 1 0 3 20.5 1.0
 2 0 0 19.14 0.6
 2 0 3 15 0.4
 2 1 2 13.6 0.5
 3 0 0 12.79 0.3
 2 1 3 12.46 0.8
 3 0 2 12.06 0.3
 2 0 5 11.59 0.5
 2 2 0 11.09 0.3
 3 1 0 10.63 0.4
 2 1 5 10.28 0.5
 3 1 3 9.76 0.4
 2 0 8 8.24 0.6
 4 1 2 8.18 0.6
 3 1 6 8.03 0.8

# End of data set 456881


