##############################################################################
#                                                                            #
# B-I              # BI3                                           #  541468 #
#                                                                            #
##############################################################################
#                                                                            #
#                           Pearson's Crystal Data                           #
#      Crystal Structure Database for Inorganic Compounds (on DVD)           #
#                              Release 2017/18                               #
#                  Editors: Pierre Villars and Karin Cenzual                 #
#                                                                            #
#   Copyright (c) ASM International & Material Phases Data System (MPDS),    #
# Switzerland & National Institute for Materials Science (NIMS), Japan, 2017 #
#                   All rights reserved. Version 2017.08                     #
#                                                                            #
#   This copy of Pearson's Crystal Data is licensed to:                      #
#   University of Alberta, Chemistry Department, 1-5 Installations License         #
#                                                                            #
##############################################################################

data_541468
_audit_creation_date                     2017-12-04
_audit_creation_method
;
Pearson's Crystal Data browser
;
#_database_code_PCD                      541468

# Entry summary

_chemical_formula_structural             'B I~3~'
_chemical_formula_sum                    'B I3'
_chemical_name_mineral                   ?
_chemical_compound_source                ?
_chemical_name_structure_type            BCl~3~,hP8,176
_chemical_formula_weight                 391.5

# Bibliographic data

_publ_section_title
'The crystal structure of boron triiodide'                                    
_journal_coden_ASTM                      INOCAJ
_journal_name_full                       'Inorg. Chem.'
_journal_year                            1962
_journal_volume                          1
_journal_page_first                      109
_journal_page_last                       111
_journal_language                        English
loop_
 _publ_author_name
 _publ_author_address
'Ring M.A.'
;
Maryland Baktimore Johns Hopkins University
Department of Chemistry
Baltimore
U.S.A. Maryland
;
'Donnay J.D.H.'
;
Maryland Baktimore Johns Hopkins University
Department of Chemistry
Baltimore
U.S.A. Maryland
;
'Koski W.S.'
;
Maryland Baktimore Johns Hopkins University
Department of Chemistry
Baltimore
U.S.A. Maryland
;

# Standardized crystallographic data

_cell_length_a                           7
_cell_length_b                           7
_cell_length_c                           7.46
_cell_angle_alpha                        90
_cell_angle_beta                         90
_cell_angle_gamma                        120
_cell_volume                             316.567
_cell_formula_units_Z                    2
_space_group_IT_number                   176
_space_group_name_H-M_alt                'P 63/m'
loop_
 _space_group_symop_id
 _space_group_symop_operation_xyz
 1 'x, y, z'
 2 '-x+y, -x, 1/2-z'
 3 '-x+y, -x, z'
 4 '-x, -y, -z'
 5 '-x, -y, 1/2+z'
 6 '-y, x-y, 1/2-z'
 7 '-y, x-y, z'
 8 'x, y, 1/2-z'
 9 'x-y, x, -z'
 10 'x-y, x, 1/2+z'
 11 'y, -x+y, -z'
 12 'y, -x+y, 1/2+z'
loop_
 _atom_type_symbol
 I
 B
loop_
 _atom_site_label
 _atom_site_type_symbol
 _atom_site_symmetry_multiplicity
 _atom_site_Wyckoff_symbol
 _atom_site_fract_x
 _atom_site_fract_y
 _atom_site_fract_z
 _atom_site_occupancy
 I I 6 h 0.03 0.37 0.25 1
 B B 2 c 0.333333 0.666667 0.25 1


_exptl_crystal_colour                    ?
_exptl_crystal_density_meas              ?
_exptl_crystal_density_diffrn            4.11
_cell_measurement_temperature            77
_cell_measurement_radiation              'X-rays, Cu Ka'
_cell_measurement_wavelength             1.5418
_pd_proc_wavelength                      1.5418
_cell_measurement_reflns_used            ?
_diffrn_ambient_temperature              77
_diffrn_measurement_device               'automatic diffractometer'
_diffrn_measurement_device_type          'General Electric XRD'
_diffrn_radiation_type                   'X-rays, Cu Ka'
_diffrn_radiation_wavelength             1.5418
_diffrn_reflns_number                    ?
_exptl_absorpt_coefficient_mu            ?
_exptl_absorpt_correction_type           ?
_computing_structure_solution            'starting values from the literature'
_refine_ls_number_parameters             ?
_refine_ls_number_reflns                 ?
_refine_ls_R_factor_gt                   ?
_refine_ls_wR_factor_gt                  ?
_pd_proc_ls_proof_R_factor               ?
_pd_proc_ls_proof_wR_factor              ?
_refine_ls_R_I_factor                    ?

# End of data set 541468


