##############################################################################
#                                                                            #
# Bk               # Bk rt                                         #  383848 #
#                                                                            #
##############################################################################
#                                                                            #
#                           Pearson's Crystal Data                           #
#      Crystal Structure Database for Inorganic Compounds (on DVD)           #
#                              Release 2017/18                               #
#                  Editors: Pierre Villars and Karin Cenzual                 #
#                                                                            #
#   Copyright (c) ASM International & Material Phases Data System (MPDS),    #
# Switzerland & National Institute for Materials Science (NIMS), Japan, 2017 #
#                   All rights reserved. Version 2017.08                     #
#                                                                            #
#   This copy of Pearson's Crystal Data is licensed to:                      #
#   University of Alberta, Chemistry Department, 1-5 Installations License         #
#                                                                            #
##############################################################################

data_383848
_audit_creation_date                     2017-12-01
_audit_creation_method
;
Pearson's Crystal Data browser
;
#_database_code_PCD                      383848

# Entry summary

_chemical_formula_structural             Bk
_chemical_formula_sum                    Bk
_chemical_name_mineral                   ?
_chemical_compound_source                ?
_chemical_name_structure_type            Nd,hP4,194
_chemical_formula_weight                 247.0

# Bibliographic data

_publ_section_title
'The crystal structures and lattice parameters of berkelium metal'            
_journal_coden_ASTM                      JINCAO
_journal_name_full                       'J. Inorg. Nucl. Chem.'
_journal_year                            1971
_journal_volume                          33
_journal_page_first                      3345
_journal_page_last                       3351
_journal_language                        English
loop_
 _publ_author_name
 _publ_author_address
'Peterson J.R.'
;
Tennessee Knoxville University
Department of Chemistry
Knoxville
U.S.A. Tennessee
;
'Fahey J.A.'
;
Tennessee Knoxville University
Department of Chemistry
Knoxville
U.S.A. Tennessee
;
'Baybarz R.D.'
;
Oak Ridge National Laboratory
Oak Ridge
U.S.A. Tennessee
;

# Standardized crystallographic data

_cell_length_a                           3.416
_cell_length_b                           3.416
_cell_length_c                           11.069
_cell_angle_alpha                        90
_cell_angle_beta                         90
_cell_angle_gamma                        120
_cell_volume                             111.9
_cell_formula_units_Z                    4
_space_group_IT_number                   194
_space_group_name_H-M_alt                'P 63/m m c'
loop_
 _space_group_symop_id
 _space_group_symop_operation_xyz
 1 'x, y, z'
 2 '-x+y, -x, 1/2-z'
 3 '-x+y, -x, z'
 4 '-x+y, y, 1/2-z'
 5 '-x+y, y, z'
 6 '-x, -x+y, -z'
 7 '-x, -x+y, 1/2+z'
 8 '-x, -y, -z'
 9 '-x, -y, 1/2+z'
 10 '-y, -x, 1/2-z'
 11 '-y, -x, z'
 12 '-y, x-y, 1/2-z'
 13 '-y, x-y, z'
 14 'x, x-y, 1/2-z'
 15 'x, x-y, z'
 16 'x, y, 1/2-z'
 17 'x-y, -y, -z'
 18 'x-y, -y, 1/2+z'
 19 'x-y, x, -z'
 20 'x-y, x, 1/2+z'
 21 'y, -x+y, -z'
 22 'y, -x+y, 1/2+z'
 23 'y, x, -z'
 24 'y, x, 1/2+z'
loop_
 _atom_type_symbol
 Bk
loop_
 _atom_site_label
 _atom_site_type_symbol
 _atom_site_symmetry_multiplicity
 _atom_site_Wyckoff_symbol
 _atom_site_fract_x
 _atom_site_fract_y
 _atom_site_fract_z
 _atom_site_occupancy
 Bk2 Bk 2 c 0.333333 0.666667 0.25 1
 Bk1 Bk 2 a 0 0 0 1


_exptl_crystal_colour                    ?
_exptl_crystal_density_meas              ?
_exptl_crystal_density_diffrn            14.67
_cell_measurement_temperature            ?
_cell_measurement_radiation              'X-rays, Cu Ka'
_cell_measurement_reflns_used            10
_diffrn_ambient_temperature              ?
_diffrn_measurement_device               'Debye-Scherrer film'
_diffrn_measurement_device_type          ?
_diffrn_radiation_type                   'X-rays, Cu Ka'
_diffrn_reflns_number                    ?
_exptl_absorpt_coefficient_mu            ?
_exptl_absorpt_correction_type           ?
_computing_structure_solution            'starting values from the literature'
_refine_ls_number_parameters             ?
_refine_ls_number_reflns                 ?
_refine_ls_R_factor_gt                   ?
_refine_ls_wR_factor_gt                  ?
_pd_proc_ls_proof_R_factor               ?
_pd_proc_ls_proof_wR_factor              ?
_refine_ls_R_I_factor                    ?

# Published diffraction lines

loop_
 _refln_index_h
 _refln_index_k
 _refln_index_l
 _refln_d_spacing
 _refln_intensity_meas
 1 0 1 314 4
 0 0 4 324 3.5
 1 0 2 343.9 10
 1 0 3 390.8 2.5
 1 0 4 448.7 0.5
 1 0 5 516.1 1
 1 1 0 537.6 4
 1 0 6 590.4 2.5
 1 1 4 641.4 4
 2 0 2 653.8 2
 1 0 7 670.4 0.5
 2 0 3 684.8 0.5
 2 0 5 776.6 0.5
 2 0 6 839 1
 1 0 9 855 0.5
 2 1 1 878.4 1
 2 1 2 894.4 2.5
 1 1 8 916.4 2.5

# End of data set 383848


