##############################################################################
#                                                                            #
# Bk               # Bk rt                                         #  455761 #
#                                                                            #
##############################################################################
#                                                                            #
#                           Pearson's Crystal Data                           #
#      Crystal Structure Database for Inorganic Compounds (on DVD)           #
#                              Release 2017/18                               #
#                  Editors: Pierre Villars and Karin Cenzual                 #
#                                                                            #
#   Copyright (c) ASM International & Material Phases Data System (MPDS),    #
# Switzerland & National Institute for Materials Science (NIMS), Japan, 2017 #
#                   All rights reserved. Version 2017.08                     #
#                                                                            #
#   This copy of Pearson's Crystal Data is licensed to:                      #
#   University of Alberta, Chemistry Department, 1-5 Installations License         #
#                                                                            #
##############################################################################

data_455761
_audit_creation_date                     2017-12-01
_audit_creation_method
;
Pearson's Crystal Data browser
;
#_database_code_PCD                      455761

# Entry summary

_chemical_formula_structural             Bk
_chemical_formula_sum                    Bk
_chemical_name_mineral                   ?
_chemical_compound_source                ?
_chemical_name_structure_type            Nd,hP4,194
_chemical_formula_weight                 247.0

# Bibliographic data

_publ_section_title
;
Preparation of rare metallic actinides (^248^Cm, ^249^Bk, ^249^Cf) and investigation of their crystal structure
;
_journal_coden_ASTM                      JRNCDM
_journal_name_full                       'J. Radioanal. Nucl. Chem.'
_journal_year                            1990
_journal_volume                          143
_journal_page_first                      253
_journal_page_last                       259
_journal_language                        English
loop_
 _publ_author_name
 _publ_author_address
'Seleznev A.G.'
;
Dimitrovgrad Melekess University
Institute of Atomic Reactors
Dimitrovgrad
Russia
;
'Radchenko V.M.'
;
Dimitrovgrad Melekess University
Institute of Atomic Reactors
Dimitrovgrad
Russia
;
'Shushakov V.D.'
;
Dimitrovgrad Melekess University
Institute of Atomic Reactors
Dimitrovgrad
Russia
;
'Ryabinin M.A.'
;
Dimitrovgrad Melekess University
Institute of Atomic Reactors
Dimitrovgrad
Russia
;
'Droznik R.R.'
;
Dimitrovgrad Melekess University
Institute of Atomic Reactors
Dimitrovgrad
Russia
;
'Lebedeva L.S.'
;
Dimitrovgrad Melekess University
Institute of Atomic Reactors
Dimitrovgrad
Russia
;
'Vasilyev V.Y.'
;
Dimitrovgrad Melekess University
Institute of Atomic Reactors
Dimitrovgrad
Russia
;

# Standardized crystallographic data

_cell_length_a                           3.412
_cell_length_b                           3.412
_cell_length_c                           11.06
_cell_angle_alpha                        90
_cell_angle_beta                         90
_cell_angle_gamma                        120
_cell_volume                             111.51
_cell_formula_units_Z                    4
_space_group_IT_number                   194
_space_group_name_H-M_alt                'P 63/m m c'
loop_
 _space_group_symop_id
 _space_group_symop_operation_xyz
 1 'x, y, z'
 2 '-x+y, -x, 1/2-z'
 3 '-x+y, -x, z'
 4 '-x+y, y, 1/2-z'
 5 '-x+y, y, z'
 6 '-x, -x+y, -z'
 7 '-x, -x+y, 1/2+z'
 8 '-x, -y, -z'
 9 '-x, -y, 1/2+z'
 10 '-y, -x, 1/2-z'
 11 '-y, -x, z'
 12 '-y, x-y, 1/2-z'
 13 '-y, x-y, z'
 14 'x, x-y, 1/2-z'
 15 'x, x-y, z'
 16 'x, y, 1/2-z'
 17 'x-y, -y, -z'
 18 'x-y, -y, 1/2+z'
 19 'x-y, x, -z'
 20 'x-y, x, 1/2+z'
 21 'y, -x+y, -z'
 22 'y, -x+y, 1/2+z'
 23 'y, x, -z'
 24 'y, x, 1/2+z'
loop_
 _atom_type_symbol
 Bk
loop_
 _atom_site_label
 _atom_site_type_symbol
 _atom_site_symmetry_multiplicity
 _atom_site_Wyckoff_symbol
 _atom_site_fract_x
 _atom_site_fract_y
 _atom_site_fract_z
 _atom_site_occupancy
 Bk2 Bk 2 c 0.333333 0.666667 0.25 1
 Bk1 Bk 2 a 0 0 0 1


_exptl_crystal_colour                    ?
_exptl_crystal_density_meas              ?
_exptl_crystal_density_diffrn            14.71
_cell_measurement_temperature            ?
_cell_measurement_radiation              X-rays
_cell_measurement_reflns_used            ?
_diffrn_ambient_temperature              ?
_diffrn_measurement_device               'automatic diffractometer'
_diffrn_measurement_device_type          ?
_diffrn_radiation_type                   X-rays
_diffrn_reflns_number                    ?
_exptl_absorpt_coefficient_mu            ?
_exptl_absorpt_correction_type           ?
_computing_structure_solution            'starting values from the literature'
_refine_ls_number_parameters             ?
_refine_ls_number_reflns                 ?
_refine_ls_R_factor_gt                   ?
_refine_ls_wR_factor_gt                  ?
_pd_proc_ls_proof_R_factor               ?
_pd_proc_ls_proof_wR_factor              ?
_refine_ls_R_I_factor                    ?

# End of data set 455761


