##############################################################################
#                                                                            #
# Bk-Cl            # BkCl3                                         #  559848 #
#                                                                            #
##############################################################################
#                                                                            #
#                           Pearson's Crystal Data                           #
#      Crystal Structure Database for Inorganic Compounds (on DVD)           #
#                              Release 2017/18                               #
#                  Editors: Pierre Villars and Karin Cenzual                 #
#                                                                            #
#   Copyright (c) ASM International & Material Phases Data System (MPDS),    #
# Switzerland & National Institute for Materials Science (NIMS), Japan, 2017 #
#                   All rights reserved. Version 2017.08                     #
#                                                                            #
#   This copy of Pearson's Crystal Data is licensed to:                      #
#   University of Alberta, Chemistry Department, 1-5 Installations License         #
#                                                                            #
##############################################################################

data_559848
_audit_creation_date                     2017-12-04
_audit_creation_method
;
Pearson's Crystal Data browser
;
#_database_code_PCD                      559848

# Entry summary

_chemical_formula_structural             'Bk Cl~3~'
_chemical_formula_sum                    'Bk Cl3'
_chemical_name_mineral                   ?
_chemical_compound_source                ?
_chemical_name_structure_type            UCl~3~,hP8,176
_chemical_formula_weight                 353.4

# Bibliographic data

_publ_section_title
;
Crystal structures and lattice parameters of the compounds of berkelium. II. Berkelium trichloride
;
_journal_coden_ASTM                      JINCAO
_journal_name_full                       'J. Inorg. Nucl. Chem.'
_journal_year                            1968
_journal_volume                          30
_journal_page_first                      823
_journal_page_last                       828
_journal_language                        English
loop_
 _publ_author_name
 _publ_author_address
'Peterson J.R.'
;
California Berkeley University
Department of Chemistry
Berkeley
U.S.A. California
;
'Cunningham B.B.'
;
California Berkeley University
Department of Chemistry
Berkeley
U.S.A. California
;

# Standardized crystallographic data

_cell_length_a                           7.382
_cell_length_b                           7.382
_cell_length_c                           4.127
_cell_angle_alpha                        90
_cell_angle_beta                         90
_cell_angle_gamma                        120
_cell_volume                             194.8
_cell_formula_units_Z                    2
_space_group_IT_number                   176
_space_group_name_H-M_alt                'P 63/m'
loop_
 _space_group_symop_id
 _space_group_symop_operation_xyz
 1 'x, y, z'
 2 '-x+y, -x, 1/2-z'
 3 '-x+y, -x, z'
 4 '-x, -y, -z'
 5 '-x, -y, 1/2+z'
 6 '-y, x-y, 1/2-z'
 7 '-y, x-y, z'
 8 'x, y, 1/2-z'
 9 'x-y, x, -z'
 10 'x-y, x, 1/2+z'
 11 'y, -x+y, -z'
 12 'y, -x+y, 1/2+z'

# Atomic positions taken from type-defining entry

loop_
 _atom_type_symbol
 Cl
 Bk
loop_
 _atom_site_label
 _atom_site_type_symbol
 _atom_site_symmetry_multiplicity
 _atom_site_Wyckoff_symbol
 _atom_site_fract_x
 _atom_site_fract_y
 _atom_site_fract_z
 _atom_site_occupancy
 Cl1 Cl 6 h 0.3866 0.085 0.25 1
 Bk1 Bk 2 c 0.333333 0.666667 0.25 1


_exptl_crystal_colour                    'green lime'
_exptl_crystal_density_meas              ?
_exptl_crystal_density_diffrn            6.03
_cell_measurement_temperature            ?
_cell_measurement_radiation              'X-rays, Cu Ka'
_cell_measurement_reflns_used            ?
_diffrn_ambient_temperature              ?
_diffrn_measurement_device               film
_diffrn_measurement_device_type          ?
_diffrn_radiation_type                   ?
_diffrn_reflns_number                    ?
_exptl_absorpt_coefficient_mu            ?
_exptl_absorpt_correction_type           ?
_computing_structure_solution            ?
_refine_ls_number_parameters             ?
_refine_ls_number_reflns                 ?
_refine_ls_R_factor_gt                   ?
_refine_ls_wR_factor_gt                  ?

# Published diffraction lines

loop_
 _refln_index_h
 _refln_index_k
 _refln_index_l
 _refln_d_spacing
 _refln_intensity_meas
 1 1 0 240.9 9.0
 1 0 1 256.8 9.5
 2 0 0 279.3 5.0
 1 1 1 325.8 3.3
 2 0 1 354.8 9.7
 2 1 0 372.3 4.5
 3 0 0 423.7 7.0
 2 1 1 433.2 9.0
 0 0 2 439.2 2.7
 1 0 2 463.2 3.5
 2 2 0 493.7 3.3
 1 1 2 506.2 5.5
 3 1 0 515.2 2.5
 2 0 2 528.2 2.8
 1 3 1 565.3 5.5
 4 0 0 577.2 1.5
 2 1 2 588.7 3.8
 4 0 1 622.7 1.3
 3 0 2 627.2 5.4
 2 3 0 634.2 0.7
 4 1 0 670.7 4.0
 2 3 1 678.7 6.0
 1 0 3 699.7 4.3
 2 0 3 752.1 4.5
 5 0 1 782.1 2.0
 2 1 3 803.1 4.8
 4 2 1 833.4 5.0
 4 1 2 836.4 5.5
 5 1 1 883.6 4.5
 3 1 3 903 4.0
 3 3 2 937.1 1.0
 4 0 3 954.6 1.0
 6 0 1 967.6 1.3
 4 3 1 982.6 2.5
 5 1 2 1002.6 4.8
 5 1 2 1006.6 2.5
 1 1 4 1019.1 1.8
 2 1 4 1085.6 3.5
 6 0 2 1090.6 3.5
 5 0 3 1101 2.0
 5 0 3 1108 3.5
 3 0 4 1121 3.5
 3 0 4 1126 2.0
 2 5 2 1142.5 3.5
 4 2 3 1160.5 3.5
 4 2 3 1165.5 1.8
 2 2 4 1176 1.8
 2 2 4 1182 1.0
 7 0 1 1194 3.5
 5 1 3 1218 4.0
 5 1 3 1224 2.0
 4 0 4 1253.9 3.5
 7 1 0 1309 1.5
 3 2 4 1318 1.5
 4 4 2 1323 2.0
 4 3 3 1345 3.5
 4 3 3 1352 2.0
 4 1 4 1363 4.3
 4 1 4 1371.5 2.0
 4 5 0 1403.9 1.3
 2 6 2 1420.4 1.3
 5 4 1 1472.9 3.0
 8 0 0 1499.4 1.3
 8 0 0 1490.9 2.5
 1 6 3 1521.9 1.8
 1 6 3 1510.9 4.0
 3 3 4 1539.9 2.5
 3 3 4 1549.9 1.5
 7 1 2 1589.8 4.0
 7 1 2 1607.3 4.0

# End of data set 559848


