##############################################################################
#                                                                            #
# Bk-H             # BkH3                                          #  260362 #
#                                                                            #
##############################################################################
#                                                                            #
#                           Pearson's Crystal Data                           #
#      Crystal Structure Database for Inorganic Compounds (on DVD)           #
#                              Release 2017/18                               #
#                  Editors: Pierre Villars and Karin Cenzual                 #
#                                                                            #
#   Copyright (c) ASM International & Material Phases Data System (MPDS),    #
# Switzerland & National Institute for Materials Science (NIMS), Japan, 2017 #
#                   All rights reserved. Version 2017.08                     #
#                                                                            #
#   This copy of Pearson's Crystal Data is licensed to:                      #
#   University of Alberta, Chemistry Department, 1-5 Installations License         #
#                                                                            #
##############################################################################

data_260362
_audit_creation_date                     2017-12-01
_audit_creation_method
;
Pearson's Crystal Data browser
;
#_database_code_PCD                      260362

# Entry summary

_chemical_formula_structural             'Bk H~3~'
_chemical_formula_sum                    'Bk H3'
_chemical_name_mineral                   ?
_chemical_compound_source                ?
_chemical_name_structure_type            Na~3~As,hP8,194
_chemical_formula_weight                 250.0

# Bibliographic data

_publ_section_title
'Preparation and X-ray diffraction studies of berkelium hydrides'             
_journal_coden_ASTM                      JCOMAH
_journal_name_full                       'J. Less-Common Met.'
_journal_year                            1985
_journal_volume                          109
_journal_page_first                      251
_journal_page_last                       259
_journal_language                        English
loop_
 _publ_author_name
 _publ_author_address
'Gibson J.K.'
;
Oak Ridge National Laboratory
Transuranium Research Laboratory
Oak Ridge
U.S.A. Tennessee
;
'Haire R.G.'
;
Oak Ridge National Laboratory
Transuranium Research Laboratory
Oak Ridge
U.S.A. Tennessee
;

# Standardized crystallographic data

_cell_length_a                           3.729
_cell_length_b                           3.729
_cell_length_c                           6.665
_cell_angle_alpha                        90
_cell_angle_beta                         90
_cell_angle_gamma                        120
_cell_volume                             80.26
_cell_formula_units_Z                    2
_space_group_IT_number                   194
_space_group_name_H-M_alt                'P 63/m m c'
loop_
 _space_group_symop_id
 _space_group_symop_operation_xyz
 1 'x, y, z'
 2 '-x+y, -x, 1/2-z'
 3 '-x+y, -x, z'
 4 '-x+y, y, 1/2-z'
 5 '-x+y, y, z'
 6 '-x, -x+y, -z'
 7 '-x, -x+y, 1/2+z'
 8 '-x, -y, -z'
 9 '-x, -y, 1/2+z'
 10 '-y, -x, 1/2-z'
 11 '-y, -x, z'
 12 '-y, x-y, 1/2-z'
 13 '-y, x-y, z'
 14 'x, x-y, 1/2-z'
 15 'x, x-y, z'
 16 'x, y, 1/2-z'
 17 'x-y, -y, -z'
 18 'x-y, -y, 1/2+z'
 19 'x-y, x, -z'
 20 'x-y, x, 1/2+z'
 21 'y, -x+y, -z'
 22 'y, -x+y, 1/2+z'
 23 'y, x, -z'
 24 'y, x, 1/2+z'

# Atomic positions taken from type-defining entry

loop_
 _atom_type_symbol
 H
 Bk
loop_
 _atom_site_label
 _atom_site_type_symbol
 _atom_site_symmetry_multiplicity
 _atom_site_Wyckoff_symbol
 _atom_site_fract_x
 _atom_site_fract_y
 _atom_site_fract_z
 _atom_site_occupancy
 H1 H 4 f 0.333333 0.666667 0.583 1
 Bk1 Bk 2 c 0.333333 0.666667 0.25 1
 H2 H 2 b 0 0 0.25 1


_exptl_crystal_colour                    ?
_exptl_crystal_density_meas              ?
_exptl_crystal_density_diffrn            10.35
_cell_measurement_temperature            ?
_cell_measurement_radiation              'X-rays, Mo Ka'
_cell_measurement_reflns_used            ?
_diffrn_ambient_temperature              ?
_diffrn_measurement_device               'Debye-Scherrer film'
_diffrn_measurement_device_type          ?
_diffrn_radiation_type                   ?
_diffrn_reflns_number                    ?
_exptl_absorpt_coefficient_mu            ?
_exptl_absorpt_correction_type           ?
_computing_structure_solution            ?
_refine_ls_number_parameters             ?
_refine_ls_number_reflns                 ?
_refine_ls_R_factor_gt                   ?
_refine_ls_wR_factor_gt                  ?

# Published diffraction lines

loop_
 _refln_index_h
 _refln_index_k
 _refln_index_l
 _refln_d_spacing
 _refln_intensity_meas
 0 0 2 3.325 3
 1 0 0 3.196 3
 1 0 1 2.892 10
 1 0 2 2.315 4
 1 1 0 1.856 5
 1 0 3 1.82 3
 1 1 2 1.62 5
 2 0 1 1.565 4
 1 0 4 1.477 1
 2 0 3 1.304 2
 1 1 4 1.236 3
 2 1 1 1.196 3
 2 1 3 1.068 2
 3 0 2 1.023 2
 1 1 6 0.952 1
 2 1 5 0.899 2

# End of data set 260362


