##############################################################################
#                                                                            #
# Bk-Pt            # BkPt5                                         #  455754 #
#                                                                            #
##############################################################################
#                                                                            #
#                           Pearson's Crystal Data                           #
#      Crystal Structure Database for Inorganic Compounds (on DVD)           #
#                              Release 2017/18                               #
#                  Editors: Pierre Villars and Karin Cenzual                 #
#                                                                            #
#   Copyright (c) ASM International & Material Phases Data System (MPDS),    #
# Switzerland & National Institute for Materials Science (NIMS), Japan, 2017 #
#                   All rights reserved. Version 2017.08                     #
#                                                                            #
#   This copy of Pearson's Crystal Data is licensed to:                      #
#   University of Alberta, Chemistry Department, 1-5 Installations License         #
#                                                                            #
##############################################################################

data_455754
_audit_creation_date                     2017-12-01
_audit_creation_method
;
Pearson's Crystal Data browser
;
#_database_code_PCD                      455754

# Entry summary

_chemical_formula_structural             'Bk Pt~5~'
_chemical_formula_sum                    'Bk Pt5'
_chemical_name_mineral                   ?
_chemical_compound_source                ?
_chemical_name_structure_type            CaCu~5~,hP6,191
_chemical_formula_weight                 1222.4

# Bibliographic data

_publ_section_title
;
Intermetallics and alloys of transplutonium elements with metals of the platinum group
;
_journal_coden_ASTM                      JRNCDM
_journal_name_full                       'J. Radioanal. Nucl. Chem.'
_journal_year                            1990
_journal_volume                          143
_journal_page_first                      261
_journal_page_last                       267
_journal_language                        English
loop_
 _publ_author_name
 _publ_author_address
'Radchenko V.M.'
;
Dimitrovgrad Melekess University
Institute of Atomic Reactors
Dimitrovgrad
Russia
;
'Seleznev A.G.'
;
Dimitrovgrad Melekess University
Institute of Atomic Reactors
Dimitrovgrad
Russia
;
'Shushakov V.D.'
;
Dimitrovgrad Melekess University
Institute of Atomic Reactors
Dimitrovgrad
Russia
;
'Droznik R.R.'
;
Dimitrovgrad Melekess University
Institute of Atomic Reactors
Dimitrovgrad
Russia
;
'Ryabinin M.A.'
;
Dimitrovgrad Melekess University
Institute of Atomic Reactors
Dimitrovgrad
Russia
;
'Lebedeva L.S.'
;
Dimitrovgrad Melekess University
Institute of Atomic Reactors
Dimitrovgrad
Russia
;
'Vasilyev V.Y.'
;
Dimitrovgrad Melekess University
Institute of Atomic Reactors
Dimitrovgrad
Russia
;

# Standardized crystallographic data

_cell_length_a                           5.27
_cell_length_b                           5.27
_cell_length_c                           4.423
_cell_angle_alpha                        90
_cell_angle_beta                         90
_cell_angle_gamma                        120
_cell_volume                             106.38
_cell_formula_units_Z                    1
_space_group_IT_number                   191
_space_group_name_H-M_alt                'P 6/m m m'
loop_
 _space_group_symop_id
 _space_group_symop_operation_xyz
 1 'x, y, z'
 2 '-x+y, -x, -z'
 3 '-x+y, -x, z'
 4 '-x+y, y, -z'
 5 '-x+y, y, z'
 6 '-x, -x+y, -z'
 7 '-x, -x+y, z'
 8 '-x, -y, -z'
 9 '-x, -y, z'
 10 '-y, -x, -z'
 11 '-y, -x, z'
 12 '-y, x-y, -z'
 13 '-y, x-y, z'
 14 'x, x-y, -z'
 15 'x, x-y, z'
 16 'x, y, -z'
 17 'x-y, -y, -z'
 18 'x-y, -y, z'
 19 'x-y, x, -z'
 20 'x-y, x, z'
 21 'y, -x+y, -z'
 22 'y, -x+y, z'
 23 'y, x, -z'
 24 'y, x, z'
loop_
 _atom_type_symbol
 Pt
 Bk
loop_
 _atom_site_label
 _atom_site_type_symbol
 _atom_site_symmetry_multiplicity
 _atom_site_Wyckoff_symbol
 _atom_site_fract_x
 _atom_site_fract_y
 _atom_site_fract_z
 _atom_site_occupancy
 Pt2 Pt 3 g 0.5 0 0.5 1
 Pt1 Pt 2 c 0.333333 0.666667 0 1
 Bk Bk 1 a 0 0 0 1


_exptl_crystal_colour                    ?
_exptl_crystal_density_meas              ?
_exptl_crystal_density_diffrn            19.08
_cell_measurement_temperature            ?
_cell_measurement_radiation              'X-rays, Cu Ka'
_cell_measurement_reflns_used            ?
_diffrn_ambient_temperature              ?
_diffrn_measurement_device               'automatic diffractometer'
_diffrn_measurement_device_type          ?
_diffrn_radiation_type                   'X-rays, Cu Ka'
_diffrn_reflns_number                    ?
_exptl_absorpt_coefficient_mu            ?
_exptl_absorpt_correction_type           ?
_computing_structure_solution            'starting values from the literature'
_refine_ls_number_parameters             ?
_refine_ls_number_reflns                 ?
_refine_ls_R_factor_gt                   ?
_refine_ls_wR_factor_gt                  ?
_pd_proc_ls_proof_R_factor               ?
_pd_proc_ls_proof_wR_factor              ?
_refine_ls_R_I_factor                    ?

# End of data set 455754


