##############################################################################
#                                                                            #
# Ca-In-Ni         # Ca3Ni8In4                                     # 1001012 #
#                                                                            #
##############################################################################
#                                                                            #
#                           Pearson's Crystal Data                           #
#      Crystal Structure Database for Inorganic Compounds (on DVD)           #
#                              Release 2017/18                               #
#                  Editors: Pierre Villars and Karin Cenzual                 #
#                                                                            #
#   Copyright (c) ASM International & Material Phases Data System (MPDS),    #
# Switzerland & National Institute for Materials Science (NIMS), Japan, 2017 #
#                   All rights reserved. Version 2017.08                     #
#                                                                            #
#   This copy of Pearson's Crystal Data is licensed to:                      #
#   University of Alberta, Chemistry Department, 1-5 Installations License         #
#                                                                            #
##############################################################################

data_1001012
_audit_creation_date                     2017-12-04
_audit_creation_method
;
Pearson's Crystal Data browser
;
#_database_code_PCD                      1001012

# Entry summary

_chemical_formula_structural             'Ca~3~ Ni~8~ In~4~'
_chemical_formula_sum                    'Ca3 In4 Ni8'
_chemical_name_mineral                   ?
_chemical_compound_source                ?
_chemical_name_structure_type            Lu~3~Co~7.77~Sn~4~,hP30,186
_chemical_formula_weight                 1049.1

# Bibliographic data

_publ_section_title
'Ca~3~Ni~8~In~4~-An Ordered Noncentrosymmetric Variant of the BaLi~4~ Type'   
_journal_coden_ASTM                      JSSCBI
_journal_name_full                       'J. Solid State Chem.'
_journal_year                            2001
_journal_volume                          160
_journal_page_first                      415
_journal_page_last                       420
_journal_language                        English
loop_
 _publ_author_name
 _publ_author_address
'Zaremba V.I.'
;
Lviv Ivan Franko National University
Department of Inorganic Chemistry
Lviv
Ukraine
;
'Muts I.R.'
;
Lviv Ivan Franko National University
Department of Inorganic Chemistry
Lviv
Ukraine
;
'Kalychak Y.M.'
;
Lviv Ivan Franko National University
Department of Inorganic Chemistry
Lviv
Ukraine
;
'Hoffmann R.D.'
;
Munich Ludwig Maximilian University
Department f\"ur Chemie
Munich
Germany
;
'P\"ottgen R.'
;
Munich Ludwig Maximilian University
Department f\"ur Chemie
Munich
Germany
;

# Standardized crystallographic data

_cell_length_a                           8.989
_cell_length_b                           8.989
_cell_length_c                           7.522
_cell_angle_alpha                        90
_cell_angle_beta                         90
_cell_angle_gamma                        120
_cell_volume                             526.4
_cell_formula_units_Z                    2
_space_group_IT_number                   186
_space_group_name_H-M_alt                'P 63 m c'
loop_
 _space_group_symop_id
 _space_group_symop_operation_xyz
 1 'x, y, z'
 2 '-x+y, -x, z'
 3 '-x+y, y, z'
 4 '-x, -x+y, 1/2+z'
 5 '-x, -y, 1/2+z'
 6 '-y, -x, z'
 7 '-y, x-y, z'
 8 'x, x-y, z'
 9 'x-y, -y, 1/2+z'
 10 'x-y, x, 1/2+z'
 11 'y, -x+y, 1/2+z'
 12 'y, x, 1/2+z'
loop_
 _atom_type_symbol
 Ni
 In
 Ca
loop_
 _atom_site_label
 _atom_site_type_symbol
 _atom_site_symmetry_multiplicity
 _atom_site_Wyckoff_symbol
 _atom_site_fract_x
 _atom_site_fract_y
 _atom_site_fract_z
 _atom_site_occupancy
 Ni4 Ni 6 c 0.1604 0.8396 0.0604 1
 In2 In 6 c 0.1694 0.8306 0.428 1
 Ca Ca 6 c 0.5296 0.4704 0.2324 1
 Ni3 Ni 6 c 0.90145 0.09855 0.2478 1
 In1 In 2 b 0.333333 0.666667 0.0728 1
 Ni2 Ni 2 b 0.333333 0.666667 0.4238 1
 Ni1 Ni 2 a 0 0 0.0 1


_exptl_crystal_colour                    'gray light'
_exptl_crystal_density_meas              ?
_exptl_crystal_density_diffrn            6.62
_cell_measurement_temperature            ?
_cell_measurement_radiation              X-rays
_cell_measurement_reflns_used            ?
_diffrn_ambient_temperature              ?
_diffrn_measurement_device               'automatic diffractometer'
_diffrn_measurement_device_type          'Enraf-Nonius CAD4'
_diffrn_radiation_type                   'X-rays, Mo Ka'
_diffrn_radiation_wavelength             0.71073
_diffrn_reflns_number                    2225
_diffrn_reflns_theta_min                 2
_diffrn_reflns_theta_max                 30
_exptl_absorpt_coefficient_mu            23.9
_exptl_absorpt_correction_type           empirical
_computing_structure_solution            'direct methods'
_refine_ls_number_parameters             35
_refine_ls_number_reflns                 314
_refine_ls_R_factor_gt                   0.0248
_refine_ls_wR_factor_gt                  0.0585

# End of data set 1001012


