##############################################################################
#                                                                            #
# B-C-Ca-Mn-O      # Ca4Mn3[BO3]3[CO3]O3                           #  381957 #
#                                                                            #
##############################################################################
#                                                                            #
#                           Pearson's Crystal Data                           #
#      Crystal Structure Database for Inorganic Compounds (on DVD)           #
#                              Release 2017/18                               #
#                  Editors: Pierre Villars and Karin Cenzual                 #
#                                                                            #
#   Copyright (c) ASM International & Material Phases Data System (MPDS),    #
# Switzerland & National Institute for Materials Science (NIMS), Japan, 2017 #
#                   All rights reserved. Version 2017.08                     #
#                                                                            #
#   This copy of Pearson's Crystal Data is licensed to:                      #
#   University of Alberta, Chemistry Department, 1-5 Installations License         #
#                                                                            #
##############################################################################

data_381957
_audit_creation_date                     2017-12-01
_audit_creation_method
;
Pearson's Crystal Data browser
;
#_database_code_PCD                      381957

# Entry summary

_chemical_formula_structural
'Ca~4~ Mn~3~ [B O~3~]~3~ [C O~3~] O~3~'                                       
_chemical_formula_sum                    'B3 C Ca4 Mn3 O15'
_chemical_name_mineral                   gaudefroyite
_chemical_compound_source
'Morocco, Bou-Azzer district, Anti-Atlas, Tachgagalt vein'                    
_chemical_name_structure_type
Ca~4~Mn~3~[BO~3~]~3~[CO~3~]O~3~,hP52,173                                      
_chemical_formula_weight                 609.6

# Bibliographic data

_publ_section_title
;
D\'etermination de la structure de la gaudefroyite
;
_journal_coden_ASTM                      COREAF
_journal_name_full                       'C. R. Hebd. Seances Acad. Sci.'
_journal_year                            1965
_journal_volume                          260
_journal_page_first                      4553
_journal_page_last                       4555
_journal_language                        French
loop_
 _publ_author_name
 _publ_author_address
'Granger M.M.'
;
Centre National de la Recherche Scientifique (CNRS)
Laboratoire de Cristallographie
Meudon-Bellevue
France
;
'Protas J.'
;
Centre National de la Recherche Scientifique (CNRS)
Laboratoire de Cristallographie
Meudon-Bellevue
France
;

# Standardized crystallographic data

_cell_length_a                           10.66
_cell_length_b                           10.66
_cell_length_c                           5.87
_cell_angle_alpha                        90
_cell_angle_beta                         90
_cell_angle_gamma                        120
_cell_volume                             577.67
_cell_formula_units_Z                    2
_space_group_IT_number                   173
_space_group_name_H-M_alt                'P 63'
loop_
 _space_group_symop_id
 _space_group_symop_operation_xyz
 1 'x, y, z'
 2 '-x+y, -x, z'
 3 '-x, -y, 1/2+z'
 4 '-y, x-y, z'
 5 'x-y, x, 1/2+z'
 6 'y, -x+y, 1/2+z'
loop_
 _atom_type_symbol
 O
 Ca
 B
 Mn
 C
loop_
 _atom_site_label
 _atom_site_type_symbol
 _atom_site_symmetry_multiplicity
 _atom_site_Wyckoff_symbol
 _atom_site_fract_x
 _atom_site_fract_y
 _atom_site_fract_z
 _atom_site_occupancy
 O4 O 6 c 0.0924 0.4727 0.1735 1
 O5 O 6 c 0.1411 0.055 0.0 1
 Ca2 Ca 6 c 0.1674 0.2983 0.1805 1
 O2 O 6 c 0.3028 0.4704 0.4884 1
 O3 O 6 c 0.4028 0.3215 0.1918 1
 B B 6 c 0.4505 0.22 0.1706 1
 O1 O 6 c 0.477 0.1748 0.4054 1
 Mn Mn 6 c 0.5 0.0 0.4211 1
 Ca1 Ca 2 b 0.333333 0.666667 0.1847 1
 C C 2 a 0 0 0.0 1


_exptl_crystal_colour                    ?
_exptl_crystal_density_meas              3.50
_exptl_crystal_density_diffrn            3.50
_cell_measurement_temperature            ?
_cell_measurement_radiation              'X-rays, Mo Ka'
_cell_measurement_reflns_used            ?
_diffrn_ambient_temperature              ?
_diffrn_measurement_device               'Weissenberg photographs'
_diffrn_measurement_device_type          ?
_diffrn_radiation_type                   'X-rays, Mo Ka'
_diffrn_reflns_number                    ?
_exptl_absorpt_coefficient_mu            ?
_exptl_absorpt_correction_type           ?
_computing_structure_solution            'Patterson and Fourier synthesis'
_refine_ls_number_parameters             ?
_refine_ls_number_reflns                 ?
_refine_ls_R_factor_gt                   0.130
_refine_ls_wR_factor_gt                  ?

# End of data set 381957


