##############################################################################
#                                                                            #
# Ca-Cl-O-P        # Ca5[PO4]3Cl ht                                # 1100476 #
#                                                                            #
##############################################################################
#                                                                            #
#                           Pearson's Crystal Data                           #
#      Crystal Structure Database for Inorganic Compounds (on DVD)           #
#                              Release 2017/18                               #
#                  Editors: Pierre Villars and Karin Cenzual                 #
#                                                                            #
#   Copyright (c) ASM International & Material Phases Data System (MPDS),    #
# Switzerland & National Institute for Materials Science (NIMS), Japan, 2017 #
#                   All rights reserved. Version 2017.08                     #
#                                                                            #
#   This copy of Pearson's Crystal Data is licensed to:                      #
#   University of Alberta, Chemistry Department, 1-5 Installations License         #
#                                                                            #
##############################################################################

data_1100476
_audit_creation_date                     2017-12-04
_audit_creation_method
;
Pearson's Crystal Data browser
;
#_database_code_PCD                      1100476

# Entry summary

_chemical_formula_structural             'Ca~5~ [P O~4~]~3~ Cl'
_chemical_formula_sum                    'Ca5 Cl O12 P3'
_chemical_name_mineral                   'chlorapatite high'
_chemical_compound_source                ?
_chemical_name_structure_type            Ca~5~[PO~4~]~3~Cl,hP42,176
_chemical_formula_weight                 520.8

# Bibliographic data

_publ_section_title
'Fluorine-chlorine interaction in fluor-chlorapatite'                         
_journal_coden_ASTM                      JSSCBI
_journal_name_full                       'J. Solid State Chem.'
_journal_year                            1974
_journal_volume                          11
_journal_page_first                      319
_journal_page_last                       329
_journal_language                        English
loop_
 _publ_author_name
 _publ_author_address
'Mackie P.E.'
;
Georgia Atlanta Institute of Technology
Atlanta
U.S.A. Georgia
;
'Young R.A.'
;
Georgia Atlanta Institute of Technology
Atlanta
U.S.A. Georgia
;

# Standardized crystallographic data

_cell_length_a                           9.6418
_cell_length_b                           9.6418
_cell_length_c                           6.7643
_cell_angle_alpha                        90
_cell_angle_beta                         90
_cell_angle_gamma                        120
_cell_volume                             544.6
_cell_formula_units_Z                    2
_space_group_IT_number                   176
_space_group_name_H-M_alt                'P 63/m'
loop_
 _space_group_symop_id
 _space_group_symop_operation_xyz
 1 'x, y, z'
 2 '-x+y, -x, 1/2-z'
 3 '-x+y, -x, z'
 4 '-x, -y, -z'
 5 '-x, -y, 1/2+z'
 6 '-y, x-y, 1/2-z'
 7 '-y, x-y, z'
 8 'x, y, 1/2-z'
 9 'x-y, x, -z'
 10 'x-y, x, 1/2+z'
 11 'y, -x+y, -z'
 12 'y, -x+y, 1/2+z'

# Atomic positions taken from type-defining entry

loop_
 _atom_type_symbol
 O
 P
 Ca
 Cl
loop_
 _atom_site_label
 _atom_site_type_symbol
 _atom_site_symmetry_multiplicity
 _atom_site_Wyckoff_symbol
 _atom_site_fract_x
 _atom_site_fract_y
 _atom_site_fract_z
 _atom_site_occupancy
 O1 O 12 i 0.083 0.333 0.064 1
 P1 P 6 h 0.055 0.416 0.25 1
 O2 O 6 h 0.133 0.6 0.25 1
 Ca1 Ca 6 h 0.247 0.25 0.25 1
 O3 O 6 h 0.5 0.167 0.25 1
 Ca2 Ca 4 f 0.333333 0.666667 0.0 1
 Cl1 Cl 2 b 0 0 0 1


_exptl_crystal_colour                    ?
_exptl_crystal_density_meas              ?
_exptl_crystal_density_diffrn            3.18
_cell_measurement_temperature            ?
_cell_measurement_radiation              ?
_cell_measurement_reflns_used            ?
_diffrn_ambient_temperature              ?
_diffrn_measurement_device               ?
_diffrn_measurement_device_type          ?
_diffrn_radiation_type                   ?
_diffrn_reflns_number                    ?
_exptl_absorpt_coefficient_mu            ?
_exptl_absorpt_correction_type           ?
_computing_structure_solution            ?
_refine_ls_number_parameters             ?
_refine_ls_number_reflns                 ?
_refine_ls_R_factor_gt                   ?
_refine_ls_wR_factor_gt                  ?

# End of data set 1100476


