##############################################################################
#                                                                            #
# Ca-Fe-N          # Ca6FeN5                                       #  462488 #
#                                                                            #
##############################################################################
#                                                                            #
#                           Pearson's Crystal Data                           #
#      Crystal Structure Database for Inorganic Compounds (on DVD)           #
#                              Release 2017/18                               #
#                  Editors: Pierre Villars and Karin Cenzual                 #
#                                                                            #
#   Copyright (c) ASM International & Material Phases Data System (MPDS),    #
# Switzerland & National Institute for Materials Science (NIMS), Japan, 2017 #
#                   All rights reserved. Version 2017.08                     #
#                                                                            #
#   This copy of Pearson's Crystal Data is licensed to:                      #
#   University of Alberta, Chemistry Department, 1-5 Installations License         #
#                                                                            #
##############################################################################

data_462488
_audit_creation_date                     2017-12-01
_audit_creation_method
;
Pearson's Crystal Data browser
;
#_database_code_PCD                      462488

# Entry summary

_chemical_formula_structural             'Ca~6~ Fe N~5~'
_chemical_formula_sum                    'Ca6 Fe N5'
_chemical_name_mineral                   ?
_chemical_compound_source                ?
_chemical_name_structure_type            Ca~6~GaN~5~,hP24,193
_chemical_formula_weight                 366.4

# Bibliographic data

_publ_section_title
;
Ca~6~GaN~5~ and Ca~6~FeN~5~: Compounds containing [CO~3~]^2-^-isosteric anions [GaN~3~]^6-^ and [FeN~3~]^6-^
;
_journal_coden_ASTM                      ZAACAB
_journal_name_full                       'Z. Anorg. Allg. Chem.'
_journal_year                            1990
_journal_volume                          591
_journal_page_first                      58
_journal_page_last                       66
_journal_language                        German
loop_
 _publ_author_name
 _publ_author_address
'Cordier G.'
;
Darmstadt University of Technology
Eduard Zintl Institut
Darmstadt
Germany
;
'H\"ohn P.'
;
Darmstadt University of Technology
Eduard Zintl Institut
Darmstadt
Germany
;
'Kniep R.'
;
Darmstadt University of Technology
Eduard Zintl Institut
Darmstadt
Germany
;
'Rabenau A.'
;
Darmstadt University of Technology
Eduard Zintl Institut
Darmstadt
Germany
;

# Standardized crystallographic data

_cell_length_a                           6.237
_cell_length_b                           6.237
_cell_length_c                           12.332
_cell_angle_alpha                        90
_cell_angle_beta                         90
_cell_angle_gamma                        120
_cell_volume                             415.4
_cell_formula_units_Z                    2
_space_group_IT_number                   193
_space_group_name_H-M_alt                'P 63/m c m'
loop_
 _space_group_symop_id
 _space_group_symop_operation_xyz
 1 'x, y, z'
 2 '-x+y, -x, 1/2-z'
 3 '-x+y, -x, z'
 4 '-x+y, y, -z'
 5 '-x+y, y, 1/2+z'
 6 '-x, -x+y, 1/2-z'
 7 '-x, -x+y, z'
 8 '-x, -y, -z'
 9 '-x, -y, 1/2+z'
 10 '-y, -x, -z'
 11 '-y, -x, 1/2+z'
 12 '-y, x-y, 1/2-z'
 13 '-y, x-y, z'
 14 'x, x-y, -z'
 15 'x, x-y, 1/2+z'
 16 'x, y, 1/2-z'
 17 'x-y, -y, 1/2-z'
 18 'x-y, -y, z'
 19 'x-y, x, -z'
 20 'x-y, x, 1/2+z'
 21 'y, -x+y, -z'
 22 'y, -x+y, 1/2+z'
 23 'y, x, 1/2-z'
 24 'y, x, z'
loop_
 _atom_type_symbol
 Ca
 N
 Fe
loop_
 _atom_site_label
 _atom_site_type_symbol
 _atom_site_symmetry_multiplicity
 _atom_site_Wyckoff_symbol
 _atom_site_fract_x
 _atom_site_fract_y
 _atom_site_fract_z
 _atom_site_occupancy
 Ca Ca 12 k 0.6049 0 0.119 1
 N2 N 6 g 0.2837 0 0.25 1
 N1 N 4 d 0.333333 0.666667 0 1
 Fe Fe 2 a 0 0 0.25 1


_exptl_crystal_colour                    black
_exptl_crystal_density_meas              ?
_exptl_crystal_density_diffrn            2.93
_cell_measurement_temperature            ?
_cell_measurement_radiation              X-rays
_cell_measurement_reflns_used            ?
_diffrn_ambient_temperature              ?
_diffrn_measurement_device               'automatic diffractometer'
_diffrn_measurement_device_type          'Philips PW1100'
_diffrn_radiation_type                   'X-rays, Mo Ka'
_diffrn_reflns_number                    ?
_diffrn_reflns_theta_min                 2.5
_diffrn_reflns_theta_max                 30
_exptl_absorpt_coefficient_mu            5.20
_exptl_absorpt_correction_type           analytical
_computing_structure_solution            'direct methods'
_refine_ls_number_parameters             12
_refine_ls_number_reflns                 1128
_refine_ls_R_factor_gt                   0.087
_refine_ls_wR_factor_gt                  ?

# Published diffraction lines

loop_
 _refln_index_h
 _refln_index_k
 _refln_index_l
 _refln_d_spacing
 _refln_intensity_meas
 0 0 2 6162 12.7
 1 0 0 5397 5.9
 1 0 2 4060 64.6
 1 1 0 3116 10.9
 0 0 4 3081 16.2
 1 1 1 3021 33.8
 2 0 0 2699 52.3
 1 0 4 2675 20.2
 1 1 3 2482 100.0
 2 0 2 2472 5.6
 1 1 4 2191 60.4
 2 1 0 2054 4.0
 2 0 4 2030 15.5
 2 1 1 2012 23.8
 2 1 2 1936 5.2
 1 1 5 1933 17.7
 1 0 6 1919 5.2
 2 1 3 1827 3.8
 3 0 0 1799 33.0
 2 1 4 1701 6.6
 2 0 6 1634 5.2
 2 1 5 1571 2.4
 3 0 4 1553 2.3
 2 2 1 1545 2.6
 0 0 8 1540 11.3
 1 1 7 1532 10.8
 3 1 0 1497 2.0
 3 1 1 1486 11.2
 2 2 3 1457 6.8
 3 1 2 1454 4.1
 2 1 6 1447 3.2
 3 1 3 1406 15.5
 2 2 4 1390 2.3
 4 0 0 1353 3.0
 3 1 4 1346 19.1
 2 0 8 1337 9.4
 2 1 7 1332 4.6
 4 0 2 1318 2.4
 2 2 5 1317 2.4
 3 1 5 1279 3.6
 3 2 0 1253 4.3
 2 2 6 1238 5.9
 4 0 4 1236 6.6

# End of data set 462488


