##############################################################################
#                                                                            #
# Ca-Ga-N          # Ca6GaN5                                       #  462489 #
#                                                                            #
##############################################################################
#                                                                            #
#                           Pearson's Crystal Data                           #
#      Crystal Structure Database for Inorganic Compounds (on DVD)           #
#                              Release 2017/18                               #
#                  Editors: Pierre Villars and Karin Cenzual                 #
#                                                                            #
#   Copyright (c) ASM International & Material Phases Data System (MPDS),    #
# Switzerland & National Institute for Materials Science (NIMS), Japan, 2017 #
#                   All rights reserved. Version 2017.08                     #
#                                                                            #
#   This copy of Pearson's Crystal Data is licensed to:                      #
#   University of Alberta, Chemistry Department, 1-5 Installations License         #
#                                                                            #
##############################################################################

data_462489
_audit_creation_date                     2017-12-01
_audit_creation_method
;
Pearson's Crystal Data browser
;
#_database_code_PCD                      462489

# Entry summary

_chemical_formula_structural             'Ca~6~ Ga N~5~'
_chemical_formula_sum                    'Ca6 Ga N5'
_chemical_name_mineral                   ?
_chemical_compound_source                ?
_chemical_name_structure_type            Ca~6~GaN~5~,hP24,193
_chemical_formula_weight                 380.2

# Bibliographic data

_publ_section_title
;
Ca~6~GaN~5~ and Ca~6~FeN~5~: Compounds containing [CO~3~]^2-^-isosteric anions [GaN~3~]^6-^ and [FeN~3~]^6-^
;
_journal_coden_ASTM                      ZAACAB
_journal_name_full                       'Z. Anorg. Allg. Chem.'
_journal_year                            1990
_journal_volume                          591
_journal_page_first                      58
_journal_page_last                       66
_journal_language                        German
loop_
 _publ_author_name
 _publ_author_address
'Cordier G.'
;
Darmstadt University of Technology
Eduard Zintl Institut
Darmstadt
Germany
;
'H\"ohn P.'
;
Darmstadt University of Technology
Eduard Zintl Institut
Darmstadt
Germany
;
'Kniep R.'
;
Darmstadt University of Technology
Eduard Zintl Institut
Darmstadt
Germany
;
'Rabenau A.'
;
Darmstadt University of Technology
Eduard Zintl Institut
Darmstadt
Germany
;

# Standardized crystallographic data

_cell_length_a                           6.277
_cell_length_b                           6.277
_cell_length_c                           12.198
_cell_angle_alpha                        90
_cell_angle_beta                         90
_cell_angle_gamma                        120
_cell_volume                             416.2
_cell_formula_units_Z                    2
_space_group_IT_number                   193
_space_group_name_H-M_alt                'P 63/m c m'
loop_
 _space_group_symop_id
 _space_group_symop_operation_xyz
 1 'x, y, z'
 2 '-x+y, -x, 1/2-z'
 3 '-x+y, -x, z'
 4 '-x+y, y, -z'
 5 '-x+y, y, 1/2+z'
 6 '-x, -x+y, 1/2-z'
 7 '-x, -x+y, z'
 8 '-x, -y, -z'
 9 '-x, -y, 1/2+z'
 10 '-y, -x, -z'
 11 '-y, -x, 1/2+z'
 12 '-y, x-y, 1/2-z'
 13 '-y, x-y, z'
 14 'x, x-y, -z'
 15 'x, x-y, 1/2+z'
 16 'x, y, 1/2-z'
 17 'x-y, -y, 1/2-z'
 18 'x-y, -y, z'
 19 'x-y, x, -z'
 20 'x-y, x, 1/2+z'
 21 'y, -x+y, -z'
 22 'y, -x+y, 1/2+z'
 23 'y, x, 1/2-z'
 24 'y, x, z'
loop_
 _atom_type_symbol
 Ca
 N
 Ga
loop_
 _atom_site_label
 _atom_site_type_symbol
 _atom_site_symmetry_multiplicity
 _atom_site_Wyckoff_symbol
 _atom_site_fract_x
 _atom_site_fract_y
 _atom_site_fract_z
 _atom_site_occupancy
 Ca Ca 12 k 0.5935 0 0.1226 1
 N2 N 6 g 0.3126 0 0.25 1
 N1 N 4 d 0.333333 0.666667 0 1
 Ga Ga 2 a 0 0 0.25 1


_exptl_crystal_colour                    yellow
_exptl_crystal_density_meas              ?
_exptl_crystal_density_diffrn            3.03
_cell_measurement_temperature            ?
_cell_measurement_radiation              X-rays
_cell_measurement_reflns_used            ?
_diffrn_ambient_temperature              ?
_diffrn_measurement_device               'automatic diffractometer'
_diffrn_measurement_device_type          'Philips PW1100'
_diffrn_radiation_type                   'X-rays, Mo Ka'
_diffrn_reflns_number                    ?
_diffrn_reflns_theta_min                 2.5
_diffrn_reflns_theta_max                 30
_exptl_absorpt_coefficient_mu            9.85
_exptl_absorpt_correction_type           empirical
_computing_structure_solution            'direct methods'
_refine_ls_number_parameters             ?
_refine_ls_number_reflns                 1485
_refine_ls_R_factor_gt                   0.090
_refine_ls_wR_factor_gt                  ?

# Published diffraction lines

loop_
 _refln_index_h
 _refln_index_k
 _refln_index_l
 _refln_d_spacing
 _refln_intensity_meas
 0 0 2 6099 31.1
 1 0 2 4058 100.0
 1 1 0 3138 3.9
 0 0 4 3049 14.3
 1 1 1 3039 44.0
 1 1 2 2790 2.7
 2 0 0 2718 88.9
 1 0 4 2659 54.8
 1 1 3 2484 89.9
 2 0 2 2482 17.2
 1 1 4 2187 78.4
 2 1 0 2054 2.0
 0 0 6 2033 3.4
 2 0 4 2029 17.6
 2 1 1 2026 27.5
 2 1 2 1947 20.3
 1 1 5 1926 30.8
 1 0 6 1904 9.1
 2 1 3 1833 15.5
 3 0 0 1812 36.7
 3 0 2 1737 6.1
 2 1 4 1704 12.2
 2 0 6 1628 7.0
 2 1 5 1571 6.6
 2 2 0 1569 2.5
 0 0 8 1524 15.7
 1 1 7 1523 7.5
 3 1 1 1496 23.2
 2 2 3 1464 5.3
 3 1 2 1463 9.5
 2 1 6 1445 6.5
 3 1 3 1413 18.4
 3 0 6 1352 3.5
 3 1 4 1351 27.4
 2 0 8 1329 16.7
 2 1 7 1329 7.3
 4 0 2 1326 3.4
 2 2 5 1319 2.9
 3 1 5 1282 9.8
 3 2 0 1247 10.9
 4 0 4 1241 3.4
 3 2 2 1221 2.8
 3 1 6 1211 3.3
 1 0 10 1190 2.3
 3 0 8 1166 14.1

# End of data set 462489


