##############################################################################
#                                                                            #
# Ca-O-S           # Ca[SO4] ht                                    #  553197 #
#                                                                            #
##############################################################################
#                                                                            #
#                           Pearson's Crystal Data                           #
#      Crystal Structure Database for Inorganic Compounds (on DVD)           #
#                              Release 2017/18                               #
#                  Editors: Pierre Villars and Karin Cenzual                 #
#                                                                            #
#   Copyright (c) ASM International & Material Phases Data System (MPDS),    #
# Switzerland & National Institute for Materials Science (NIMS), Japan, 2017 #
#                   All rights reserved. Version 2017.08                     #
#                                                                            #
#   This copy of Pearson's Crystal Data is licensed to:                      #
#   University of Alberta, Chemistry Department, 1-5 Installations License         #
#                                                                            #
##############################################################################

data_553197
_audit_creation_date                     2017-12-04
_audit_creation_method
;
Pearson's Crystal Data browser
;
#_database_code_PCD                      553197

# Entry summary

_chemical_formula_structural             'Ca [S O~4~]'
_chemical_formula_sum                    'Ca O4 S'
_chemical_name_mineral                   ?
_chemical_compound_source                ?
_chemical_name_structure_type            Ce[PO~4~],hP18,180
_chemical_formula_weight                 136.1

# Bibliographic data

_publ_section_title
;
Structural changes accompanying the calcium sulfate hemihydrate <-> anhydrite III phase transition
;
_journal_coden_ASTM                      INOMAF
_journal_name_full                       'Inorg. Mater.'
_journal_year                            1988
_journal_volume                          24
_journal_page_first                      1006
_journal_page_last                       1009
_journal_language                        English
loop_
 _publ_author_name
 _publ_author_address
'Bobrov B.S.'
;
Russian Academy of Sciences
Moscow
Russia
;
'Romashkov A.V.'
;
Russian Academy of Sciences
Moscow
Russia
;
'Tubolev A.L.'
;
Russian Academy of Sciences
Moscow
Russia
;

# Standardized crystallographic data

_cell_length_a                           6.972
_cell_length_b                           6.972
_cell_length_c                           6.305
_cell_angle_alpha                        90
_cell_angle_beta                         90
_cell_angle_gamma                        120
_cell_volume                             265.4
_cell_formula_units_Z                    3
_space_group_IT_number                   180
_space_group_name_H-M_alt                'P 62 2 2'
loop_
 _space_group_symop_id
 _space_group_symop_operation_xyz
 1 'x, y, z'
 2 '-x+y, -x, 1/3+z'
 3 '-x+y, y, -z'
 4 '-x, -x+y, 1/3-z'
 5 '-x, -y, z'
 6 '-y, -x, -1/3-z'
 7 '-y, x-y, -1/3+z'
 8 'x, x-y, 1/3-z'
 9 'x-y, -y, -z'
 10 'x-y, x, 1/3+z'
 11 'y, -x+y, -1/3+z'
 12 'y, x, -1/3-z'

# Atomic positions taken from type-defining entry

loop_
 _atom_type_symbol
 O
 S
 Ca
loop_
 _atom_site_label
 _atom_site_type_symbol
 _atom_site_symmetry_multiplicity
 _atom_site_Wyckoff_symbol
 _atom_site_fract_x
 _atom_site_fract_y
 _atom_site_fract_z
 _atom_site_occupancy
 O1 O 12 k 0.147 0.446 0.30667 1
 S1 S 3 d 0.5 0 0.5 1
 Ca1 Ca 3 c 0.5 0 0 1


_exptl_crystal_colour                    ?
_exptl_crystal_density_meas              ?
_exptl_crystal_density_diffrn            2.56
_cell_measurement_temperature            353
_cell_measurement_radiation              'X-rays, Cu Ka'
_cell_measurement_reflns_used            ?
_diffrn_ambient_temperature              ?
_diffrn_measurement_device               film
_diffrn_measurement_device_type          ?
_diffrn_radiation_type                   ?
_diffrn_reflns_number                    ?
_exptl_absorpt_coefficient_mu            ?
_exptl_absorpt_correction_type           ?
_computing_structure_solution            ?
_refine_ls_number_parameters             ?
_refine_ls_number_reflns                 ?
_refine_ls_R_factor_gt                   ?
_refine_ls_wR_factor_gt                  ?

# Published diffraction lines

loop_
 _refln_index_h
 _refln_index_k
 _refln_index_l
 _refln_d_spacing
 _refln_intensity_meas
 1 0 0 60.46 100
 1 0 1 43.64 1
 1 1 0 34.85 22
 1 1 1 30.44 17
 2 0 0 30.16 71
 1 0 2 27.94 22
 2 0 1 27.2 5
 1 1 2 23.38 3
 2 1 0 22.81 1
 2 0 2 21.8 3
 2 1 1 21.46 5
 0 0 3 21.06 2
 3 0 0 20.12 3
 3 0 1 19.17 6
 2 1 2 18.48 18
 2 2 0 17.43 5
 3 0 2 16.97 10
 2 2 1 16.75 4
 3 1 0 16.7 3
 3 1 1 16.17 1
 2 1 3 15.48 1
 2 2 2 15.26 1
 4 0 0 15.09 2
 3 1 2 14.8 3
 4 1 0 13.12 1
 2 1 4 12.98 3
 3 2 2 12.67 3

# End of data set 553197


