##############################################################################
#                                                                            #
# Ca-Cd            # CaCd2 rt                                      #  261166 #
#                                                                            #
##############################################################################
#                                                                            #
#                           Pearson's Crystal Data                           #
#      Crystal Structure Database for Inorganic Compounds (on DVD)           #
#                              Release 2017/18                               #
#                  Editors: Pierre Villars and Karin Cenzual                 #
#                                                                            #
#   Copyright (c) ASM International & Material Phases Data System (MPDS),    #
# Switzerland & National Institute for Materials Science (NIMS), Japan, 2017 #
#                   All rights reserved. Version 2017.08                     #
#                                                                            #
#   This copy of Pearson's Crystal Data is licensed to:                      #
#   University of Alberta, Chemistry Department, 1-5 Installations License         #
#                                                                            #
##############################################################################

data_261166
_audit_creation_date                     2017-12-01
_audit_creation_method
;
Pearson's Crystal Data browser
;
#_database_code_PCD                      261166

# Entry summary

_chemical_formula_structural             'Ca Cd~2~'
_chemical_formula_sum                    'Ca Cd2'
_chemical_name_mineral                   ?
_chemical_compound_source                ?
_chemical_name_structure_type            MgZn~2~,hP12,194
_chemical_formula_weight                 264.9

# Bibliographic data

_publ_section_title
'Die Kristallstrukturen von Zn~9~Th, Cd~2~Ca und (Ag,Mg)~2~Ca'                
_journal_coden_ASTM                      MEFGAZ
_journal_name_full                       Metallforschung
_journal_year                            1946
_journal_volume                          1
_journal_page_first                      31
_journal_page_last                       34
_journal_language                        German
loop_
 _publ_author_name
 _publ_author_address
'Nowotny H.'
;
Stuttgart Technical University
Kaiser-Wilhelm Institut f\"ur Metallforschung
Stuttgart
Germany
;

# Standardized crystallographic data

_cell_length_a                           5.981
_cell_length_b                           5.981
_cell_length_c                           9.635
_cell_angle_alpha                        90
_cell_angle_beta                         90
_cell_angle_gamma                        120
_cell_volume                             298.49
_cell_formula_units_Z                    4
_space_group_IT_number                   194
_space_group_name_H-M_alt                'P 63/m m c'
loop_
 _space_group_symop_id
 _space_group_symop_operation_xyz
 1 'x, y, z'
 2 '-x+y, -x, 1/2-z'
 3 '-x+y, -x, z'
 4 '-x+y, y, 1/2-z'
 5 '-x+y, y, z'
 6 '-x, -x+y, -z'
 7 '-x, -x+y, 1/2+z'
 8 '-x, -y, -z'
 9 '-x, -y, 1/2+z'
 10 '-y, -x, 1/2-z'
 11 '-y, -x, z'
 12 '-y, x-y, 1/2-z'
 13 '-y, x-y, z'
 14 'x, x-y, 1/2-z'
 15 'x, x-y, z'
 16 'x, y, 1/2-z'
 17 'x-y, -y, -z'
 18 'x-y, -y, 1/2+z'
 19 'x-y, x, -z'
 20 'x-y, x, 1/2+z'
 21 'y, -x+y, -z'
 22 'y, -x+y, 1/2+z'
 23 'y, x, -z'
 24 'y, x, 1/2+z'
loop_
 _atom_type_symbol
 Cd
 Ca
loop_
 _atom_site_label
 _atom_site_type_symbol
 _atom_site_symmetry_multiplicity
 _atom_site_Wyckoff_symbol
 _atom_site_fract_x
 _atom_site_fract_y
 _atom_site_fract_z
 _atom_site_occupancy
 Cd2 Cd 6 h 0.17 0.34 0.25 1
 Ca Ca 4 f 0.333333 0.666667 0.583 1
 Cd1 Cd 2 a 0 0 0 1


_exptl_crystal_colour                    ?
_exptl_crystal_density_meas              ?
_exptl_crystal_density_diffrn            5.89
_cell_measurement_temperature            ?
_cell_measurement_radiation              'X-rays, Co Ka'
_cell_measurement_reflns_used            ?
_diffrn_ambient_temperature              ?
_diffrn_measurement_device               ?
_diffrn_measurement_device_type          ?
_diffrn_radiation_type                   ?
_diffrn_reflns_number                    ?
_exptl_absorpt_coefficient_mu            ?
_exptl_absorpt_correction_type           ?
_computing_structure_solution            ?
_refine_ls_number_parameters             ?
_refine_ls_number_reflns                 ?
_refine_ls_R_factor_gt                   ?
_refine_ls_wR_factor_gt                  ?

# Published diffraction lines

loop_
 _refln_index_h
 _refln_index_k
 _refln_index_l
 _refln_d_spacing
 _refln_intensity_meas
 1 0 3 1.09 3
 1 1 2 1.238 7
 2 0 1 1.273 7
 0 0 4 1.385 2.5
 2 0 2 1.539 4
 1 0 4 1.67 2.5
 2 0 3 1.981 3
 2 1 3 2.871 2
 3 0 2 3.03 3
 2 0 5 3.339 4
 2 1 4 3.463 2
 2 2 0 3.572 4
 3 1 0 3.95 2
 2 0 6 4.287 3
 3 1 3 4.62 2
 4 0 1 4.83 2.5
 2 2 4 4.948 4

# End of data set 261166


