##############################################################################
#                                                                            #
# Ca-Ni            # CaNi5                                         #  532256 #
#                                                                            #
##############################################################################
#                                                                            #
#                           Pearson's Crystal Data                           #
#      Crystal Structure Database for Inorganic Compounds (on DVD)           #
#                              Release 2017/18                               #
#                  Editors: Pierre Villars and Karin Cenzual                 #
#                                                                            #
#   Copyright (c) ASM International & Material Phases Data System (MPDS),    #
# Switzerland & National Institute for Materials Science (NIMS), Japan, 2017 #
#                   All rights reserved. Version 2017.08                     #
#                                                                            #
#   This copy of Pearson's Crystal Data is licensed to:                      #
#   University of Alberta, Chemistry Department, 1-5 Installations License         #
#                                                                            #
##############################################################################

data_532256
_audit_creation_date                     2017-12-04
_audit_creation_method
;
Pearson's Crystal Data browser
;
#_database_code_PCD                      532256

# Entry summary

_chemical_formula_structural             'Ca Ni~5~'
_chemical_formula_sum                    'Ca Ni5'
_chemical_name_mineral                   ?
_chemical_compound_source                ?
_chemical_name_structure_type            CaCu~5~,hP6,191
_chemical_formula_weight                 333.6

# Bibliographic data

_publ_section_title
'Crystal structure of CaNi~5~H using X-ray diffraction with in situ hydriding'
_journal_coden_ASTM                      MRBUAC
_journal_name_full                       'Mater. Res. Bull.'
_journal_year                            1984
_journal_volume                          19
_journal_page_first                      107
_journal_page_last                       113
_journal_language                        English
loop_
 _publ_author_name
 _publ_author_address
'Calvert L.D.'
;
National Research Council of Canada (NRCC)
Division of Chemistry
Ottawa
Canada
;
'Murray J.J.'
;
National Research Council of Canada (NRCC)
Division of Chemistry
Ottawa
Canada
;
'Gainsford G.J.'
;
National Research Council of Canada (NRCC)
Division of Chemistry
Ottawa
Canada
;
'Taylor J.B.'
;
National Research Council of Canada (NRCC)
Division of Chemistry
Ottawa
Canada
;

# Standardized crystallographic data

_cell_length_a                           4.9516
_cell_length_b                           4.9516
_cell_length_c                           3.9373
_cell_angle_alpha                        90
_cell_angle_beta                         90
_cell_angle_gamma                        120
_cell_volume                             83.6
_cell_formula_units_Z                    1
_space_group_IT_number                   191
_space_group_name_H-M_alt                'P 6/m m m'
loop_
 _space_group_symop_id
 _space_group_symop_operation_xyz
 1 'x, y, z'
 2 '-x+y, -x, -z'
 3 '-x+y, -x, z'
 4 '-x+y, y, -z'
 5 '-x+y, y, z'
 6 '-x, -x+y, -z'
 7 '-x, -x+y, z'
 8 '-x, -y, -z'
 9 '-x, -y, z'
 10 '-y, -x, -z'
 11 '-y, -x, z'
 12 '-y, x-y, -z'
 13 '-y, x-y, z'
 14 'x, x-y, -z'
 15 'x, x-y, z'
 16 'x, y, -z'
 17 'x-y, -y, -z'
 18 'x-y, -y, z'
 19 'x-y, x, -z'
 20 'x-y, x, z'
 21 'y, -x+y, -z'
 22 'y, -x+y, z'
 23 'y, x, -z'
 24 'y, x, z'
loop_
 _atom_type_symbol
 Ni
 Ca
loop_
 _atom_site_label
 _atom_site_type_symbol
 _atom_site_symmetry_multiplicity
 _atom_site_Wyckoff_symbol
 _atom_site_fract_x
 _atom_site_fract_y
 _atom_site_fract_z
 _atom_site_occupancy
 Ni2 Ni 3 g 0.5 0 0.5 1
 Ni1 Ni 2 c 0.333333 0.666667 0 1
 Ca Ca 1 a 0 0 0 1


_exptl_crystal_colour                    ?
_exptl_crystal_density_meas              ?
_exptl_crystal_density_diffrn            6.63
_cell_measurement_temperature            293
_cell_measurement_radiation              'X-rays, Mo Ka'
_cell_measurement_wavelength             0.7093
_pd_proc_wavelength                      0.7093
_cell_measurement_reflns_used            ?
_diffrn_ambient_temperature              299
_diffrn_measurement_device               'Guinier film'
_diffrn_measurement_device_type          ?
_diffrn_radiation_type                   'X-rays, Mo Ka'
_diffrn_radiation_wavelength             0.7093
_diffrn_reflns_number                    ?
_exptl_absorpt_coefficient_mu            ?
_exptl_absorpt_correction_type           ?
_computing_structure_solution            'starting values from the literature'
_refine_ls_number_parameters             ?
_refine_ls_number_reflns                 ?
_refine_ls_R_factor_gt                   ?
_refine_ls_wR_factor_gt                  ?
_pd_proc_ls_proof_R_factor               ?
_pd_proc_ls_proof_wR_factor              ?
_refine_ls_R_I_factor                    ?

# Published diffraction lines

loop_
 _refln_index_h
 _refln_index_k
 _refln_index_l
 _refln_d_spacing
 _refln_intensity_meas
 1 0 0 42.9 32
 1 0 1 29.031 8
 1 1 0 24.774 15
 2 0 0 21.461 28
 1 1 1 20.974 100
 0 0 2 19.695 35
 2 0 1 18.832 68
 1 0 2 17.897 11
 2 1 0 16.21 7
 1 1 2 15.408 8
 2 1 1 14.988 2
 2 0 2 14.501 18
 3 0 0 14.296 3
 3 0 1 13.4355 22
 2 1 2 12.5176 6
 2 2 0 12.3838 21
 3 1 0 11.8934 2
 1 1 3 11.5932 18
 2 0 3 11.1951 13
 4 0 0 10.7206 3
 2 2 2 10.4771 21
 4 0 1 10.342 6
 3 1 2 10.1772 3

# End of data set 532256


