##############################################################################
#                                                                            #
# Ca-Sn-Zn         # CaZnSn                                        #  303704 #
#                                                                            #
##############################################################################
#                                                                            #
#                           Pearson's Crystal Data                           #
#      Crystal Structure Database for Inorganic Compounds (on DVD)           #
#                              Release 2017/18                               #
#                  Editors: Pierre Villars and Karin Cenzual                 #
#                                                                            #
#   Copyright (c) ASM International & Material Phases Data System (MPDS),    #
# Switzerland & National Institute for Materials Science (NIMS), Japan, 2017 #
#                   All rights reserved. Version 2017.08                     #
#                                                                            #
#   This copy of Pearson's Crystal Data is licensed to:                      #
#   University of Alberta, Chemistry Department, 1-5 Installations License         #
#                                                                            #
##############################################################################

data_303704
_audit_creation_date                     2017-12-01
_audit_creation_method
;
Pearson's Crystal Data browser
;
#_database_code_PCD                      303704

# Entry summary

_chemical_formula_structural             'Ca Zn Sn'
_chemical_formula_sum                    'Ca Sn Zn'
_chemical_name_mineral                   ?
_chemical_compound_source                ?
_chemical_name_structure_type            LiGaGe,hP6,186
_chemical_formula_weight                 224.1

# Bibliographic data

_publ_section_title
'Structure, Bonding, and Properties of CaZn~1-x~Cd~x~Sn and CaSn~0.5~Ge~1.5~' 
_journal_coden_ASTM                      JSSCBI
_journal_name_full                       'J. Solid State Chem.'
_journal_year                            1993
_journal_volume                          107
_journal_page_first                      480
_journal_page_last                       488
_journal_language                        English
loop_
 _publ_author_name
 _publ_author_address
'Ganguli A.K.'
;
Iowa State Ames University of Science and Technology
Ames National Laboratory - Department of Energy (DOE)
Ames
U.S.A. Iowa
;
'Corbett J.D.'
;
Iowa State Ames University of Science and Technology
Department of Chemistry
Ames
U.S.A. Iowa
;

# Standardized crystallographic data

_cell_length_a                           4.655
_cell_length_b                           4.655
_cell_length_c                           7.628
_cell_angle_alpha                        90
_cell_angle_beta                         90
_cell_angle_gamma                        120
_cell_volume                             143.1
_cell_formula_units_Z                    2
_space_group_IT_number                   186
_space_group_name_H-M_alt                'P 63 m c'
loop_
 _space_group_symop_id
 _space_group_symop_operation_xyz
 1 'x, y, z'
 2 '-x+y, -x, z'
 3 '-x+y, y, z'
 4 '-x, -x+y, 1/2+z'
 5 '-x, -y, 1/2+z'
 6 '-y, -x, z'
 7 '-y, x-y, z'
 8 'x, x-y, z'
 9 'x-y, -y, 1/2+z'
 10 'x-y, x, 1/2+z'
 11 'y, -x+y, 1/2+z'
 12 'y, x, 1/2+z'
loop_
 _atom_type_symbol
 Sn
 Zn
 Ca
loop_
 _atom_site_label
 _atom_site_type_symbol
 _atom_site_symmetry_multiplicity
 _atom_site_Wyckoff_symbol
 _atom_site_fract_x
 _atom_site_fract_y
 _atom_site_fract_z
 _atom_site_occupancy
 Sn Sn 2 b 0.333333 0.666667 0.28 1
 Zn Zn 2 b 0.333333 0.666667 0.6952 1
 Ca Ca 2 a 0 0 0.0 1


_exptl_crystal_colour                    ?
_exptl_crystal_density_meas              ?
_exptl_crystal_density_diffrn            5.20
_cell_measurement_temperature            296
_cell_measurement_radiation              'X-rays, Co Ka1'
_cell_measurement_reflns_used            ?
_diffrn_ambient_temperature              296
_diffrn_measurement_device               'automatic diffractometer'
_diffrn_measurement_device_type          'Rigaku AFC6R'
_diffrn_radiation_type                   'X-rays, Mo Ka'
_diffrn_reflns_number                    240
_exptl_absorpt_coefficient_mu            18.763
_exptl_absorpt_correction_type           ?
_computing_structure_solution            'direct methods'
_refine_ls_number_parameters             10
_refine_ls_number_reflns                 98
_refine_ls_R_factor_gt                   0.025
_refine_ls_wR_factor_gt                  0.029

# End of data set 303704


