##############################################################################
#                                                                            #
# Cd-Dy            # Cd2Dy                                         #  532700 #
#                                                                            #
##############################################################################
#                                                                            #
#                           Pearson's Crystal Data                           #
#      Crystal Structure Database for Inorganic Compounds (on DVD)           #
#                              Release 2017/18                               #
#                  Editors: Pierre Villars and Karin Cenzual                 #
#                                                                            #
#   Copyright (c) ASM International & Material Phases Data System (MPDS),    #
# Switzerland & National Institute for Materials Science (NIMS), Japan, 2017 #
#                   All rights reserved. Version 2017.08                     #
#                                                                            #
#   This copy of Pearson's Crystal Data is licensed to:                      #
#   University of Alberta, Chemistry Department, 1-5 Installations License         #
#                                                                            #
##############################################################################

data_532700
_audit_creation_date                     2017-12-04
_audit_creation_method
;
Pearson's Crystal Data browser
;
#_database_code_PCD                      532700

# Entry summary

_chemical_formula_structural             'Cd~2~ Dy'
_chemical_formula_sum                    'Cd2 Dy'
_chemical_name_mineral                   ?
_chemical_compound_source                ?
_chemical_name_structure_type            Hg~2~U,hP3,191
_chemical_formula_weight                 387.3

# Bibliographic data

_publ_section_title
'\"Uber einige Y- und Dy-haltige Legierungsphasen'                            
_journal_coden_ASTM                      MOCMB7
_journal_name_full                       'Monatsh. Chem.'
_journal_year                            1964
_journal_volume                          95
_journal_page_first                      1504
_journal_page_last                       1513
_journal_language                        German
loop_
 _publ_author_name
 _publ_author_address
'Laube E.'
;
Vienna University
Institut f\"ur Physikalische Chemie
Vienna
Austria
;
'Kusma J.B.'
;
Vienna University
Institut f\"ur Physikalische Chemie
Vienna
Austria
;

# Standardized crystallographic data

_cell_length_a                           4.901
_cell_length_b                           4.901
_cell_length_c                           3.45
_cell_angle_alpha                        90
_cell_angle_beta                         90
_cell_angle_gamma                        120
_cell_volume                             71.77
_cell_formula_units_Z                    1
_space_group_IT_number                   191
_space_group_name_H-M_alt                'P 6/m m m'
loop_
 _space_group_symop_id
 _space_group_symop_operation_xyz
 1 'x, y, z'
 2 '-x+y, -x, -z'
 3 '-x+y, -x, z'
 4 '-x+y, y, -z'
 5 '-x+y, y, z'
 6 '-x, -x+y, -z'
 7 '-x, -x+y, z'
 8 '-x, -y, -z'
 9 '-x, -y, z'
 10 '-y, -x, -z'
 11 '-y, -x, z'
 12 '-y, x-y, -z'
 13 '-y, x-y, z'
 14 'x, x-y, -z'
 15 'x, x-y, z'
 16 'x, y, -z'
 17 'x-y, -y, -z'
 18 'x-y, -y, z'
 19 'x-y, x, -z'
 20 'x-y, x, z'
 21 'y, -x+y, -z'
 22 'y, -x+y, z'
 23 'y, x, -z'
 24 'y, x, z'
loop_
 _atom_type_symbol
 Cd
 Dy
loop_
 _atom_site_label
 _atom_site_type_symbol
 _atom_site_symmetry_multiplicity
 _atom_site_Wyckoff_symbol
 _atom_site_fract_x
 _atom_site_fract_y
 _atom_site_fract_z
 _atom_site_occupancy
 Cd Cd 2 d 0.333333 0.666667 0.5 1
 Dy Dy 1 a 0 0 0 1


_exptl_crystal_colour                    ?
_exptl_crystal_density_meas              ?
_exptl_crystal_density_diffrn            8.96
_cell_measurement_temperature            ?
_cell_measurement_radiation              'X-rays, Cu Ka'
_cell_measurement_reflns_used            ?
_diffrn_ambient_temperature              ?
_diffrn_measurement_device               'Debye-Scherrer film'
_diffrn_measurement_device_type          ?
_diffrn_radiation_type                   'X-rays, Cu Ka'
_diffrn_reflns_number                    ?
_exptl_absorpt_coefficient_mu            ?
_exptl_absorpt_correction_type           ?
_computing_structure_solution            'starting values from the literature'
_refine_ls_number_parameters             ?
_refine_ls_number_reflns                 ?
_refine_ls_R_factor_gt                   ?
_refine_ls_wR_factor_gt                  ?
_pd_proc_ls_proof_R_factor               ?
_pd_proc_ls_proof_wR_factor              ?
_refine_ls_R_I_factor                    ?

# Published diffraction lines

loop_
 _refln_index_h
 _refln_index_k
 _refln_index_l
 _refln_d_spacing
 _refln_intensity_meas
 1 0 1 826 6
 1 1 0 986 5
 1 1 1 1489 1
 2 0 1 1813 3
 0 0 2 1991 2
 2 1 0 2314 1
 2 1 1 2808 5
 3 0 0 2974 7
 3 0 1 3463 1
 2 2 0 3952 2
 3 1 1 4782 3
 1 0 3 4817 2
 3 0 2 4957 3
 4 0 1 5765 2
 2 0 3 5805 2
 2 2 2 5946 3
 3 2 1 6759 3
 2 1 3 6792 3
 4 1 0 6913 3
 0 0 4 7974 1
 5 0 1 8733 2
 3 1 3 8768 5
 3 3 0 8891 2
 4 1 2 8908 7
 1 1 4 8966 5
 4 2 1 9719 7
 4 0 3 9755 6

# End of data set 532700


