##############################################################################
#                                                                            #
# Cd-Ge-Se         # Cd4GeSe6                                      #  307350 #
#                                                                            #
##############################################################################
#                                                                            #
#                           Pearson's Crystal Data                           #
#      Crystal Structure Database for Inorganic Compounds (on DVD)           #
#                              Release 2017/18                               #
#                  Editors: Pierre Villars and Karin Cenzual                 #
#                                                                            #
#   Copyright (c) ASM International & Material Phases Data System (MPDS),    #
# Switzerland & National Institute for Materials Science (NIMS), Japan, 2017 #
#                   All rights reserved. Version 2017.08                     #
#                                                                            #
#   This copy of Pearson's Crystal Data is licensed to:                      #
#   University of Alberta, Chemistry Department, 1-5 Installations License         #
#                                                                            #
##############################################################################

data_307350
_audit_creation_date                     2017-12-01
_audit_creation_method
;
Pearson's Crystal Data browser
;
#_database_code_PCD                      307350

# Entry summary

_chemical_formula_structural             'Cd~4~ Ge Se~6~'
_chemical_formula_sum                    'Cd4 Ge Se6'
_chemical_name_mineral                   ?
_chemical_compound_source                ?
_chemical_name_structure_type            Cd~4~GeS~6~,mS44,9
_chemical_formula_weight                 996.0
_chemical_melting_point                  1113

# Bibliographic data

_publ_section_title
;
Etude du syst\`eme GeSe~2~-CdSe. Identification du compos\'e Cd~4~GeSe~6~
;
_journal_coden_ASTM                      CHDCAQ
_journal_name_full                       'C. R. Seances Acad. Sci., Ser. C'
_journal_year                            1969
_journal_volume                          268
_journal_page_first                      2294
_journal_page_last                       2297
_journal_language                        French
loop_
 _publ_author_name
 _publ_author_address
'Quenez P.'
;
Paris University
Paris
France
;
'Khodadad P.'
;
Paris University
Paris
France
;

# Standardized crystallographic data

_cell_length_a                           12.81
_cell_length_b                           7.38
_cell_length_c                           12.79
_cell_angle_alpha                        90
_cell_angle_beta                         109.57
_cell_angle_gamma                        90
_cell_volume                             1139.3
_cell_formula_units_Z                    4
_space_group_IT_number                   9
_space_group_name_H-M_alt                'C 1 c 1'
loop_
 _space_group_symop_id
 _space_group_symop_operation_xyz
 1 'x, y, z'
 2 'x, -y, 1/2+z'
 3 '1/2+x, 1/2+y, z'
 4 '1/2+x, 1/2-y, 1/2+z'

# Atomic positions taken from type-defining entry

loop_
 _atom_type_symbol
 Se
 Ge
 Cd
loop_
 _atom_site_label
 _atom_site_type_symbol
 _atom_site_symmetry_multiplicity
 _atom_site_Wyckoff_symbol
 _atom_site_fract_x
 _atom_site_fract_y
 _atom_site_fract_z
 _atom_site_occupancy
 Se1 Se 4 a 0.0 0.0177 0.0 1
 Se2 Se 4 a 0.0 0.2782 0.264 1
 Se3 Se 4 a 0.032 0.518 0.0318 1
 Ge1 Ge 4 a 0.076 0.2302 0.4511 1
 Cd1 Cd 4 a 0.1421 0.0814 0.2037 1
 Se4 Se 4 a 0.2641 0.2366 0.5037 1
 Cd2 Cd 4 a 0.298 0.6065 0.2006 1
 Se5 Se 4 a 0.3202 0.2551 0.198 1
 Cd3 Cd 4 a 0.3271 0.1156 0.0129 1
 Cd4 Cd 4 a 0.5092 0.1969 0.3591 1
 Se6 Se 4 a 0.6936 0.2761 0.3182 1


_exptl_crystal_colour                    ?
_exptl_crystal_density_meas              ?
_exptl_crystal_density_diffrn            5.81
_cell_measurement_temperature            ?
_cell_measurement_radiation              'X-rays, Cu Ka'
_cell_measurement_reflns_used            ?
_diffrn_ambient_temperature              ?
_diffrn_measurement_device               'Debye-Scherrer film'
_diffrn_measurement_device_type          ?
_diffrn_radiation_type                   ?
_diffrn_reflns_number                    ?
_exptl_absorpt_coefficient_mu            ?
_exptl_absorpt_correction_type           ?
_computing_structure_solution            ?
_refine_ls_number_parameters             ?
_refine_ls_number_reflns                 ?
_refine_ls_R_factor_gt                   ?
_refine_ls_wR_factor_gt                  ?

# Published diffraction lines

loop_
 _refln_index_h
 _refln_index_k
 _refln_index_l
 _refln_d_spacing
 _refln_intensity_meas
 2 0 -2 52 3
 1 1 -2 47.8 3
 1 1 2 40.08 3
 0 2 0 36.8 7
 0 2 1 35.31 7
 2 0 -4 31.44 7
 0 0 4 30.05 7
 2 2 -3 29.19 3
 3 1 -4 27.12 3
 1 3 1 23.33 2
 2 2 3 22.9 2
 1 3 2 21.86 2
 1 1 5 21.27 7
 3 3 -3 20.13 7
 0 2 6 17.65 5
 2 0 6 17.39 5

# End of data set 307350


