##############################################################################
#                                                                            #
# Cd-Ge-S          # Cd4GeS6 rt                                    # 1000356 #
#                                                                            #
##############################################################################
#                                                                            #
#                           Pearson's Crystal Data                           #
#      Crystal Structure Database for Inorganic Compounds (on DVD)           #
#                              Release 2017/18                               #
#                  Editors: Pierre Villars and Karin Cenzual                 #
#                                                                            #
#   Copyright (c) ASM International & Material Phases Data System (MPDS),    #
# Switzerland & National Institute for Materials Science (NIMS), Japan, 2017 #
#                   All rights reserved. Version 2017.08                     #
#                                                                            #
#   This copy of Pearson's Crystal Data is licensed to:                      #
#   University of Alberta, Chemistry Department, 1-5 Installations License         #
#                                                                            #
##############################################################################

data_1000356
_audit_creation_date                     2017-12-04
_audit_creation_method
;
Pearson's Crystal Data browser
;
#_database_code_PCD                      1000356

# Entry summary

_chemical_formula_structural             'Cd~4~ Ge S~6~'
_chemical_formula_sum                    'Cd4 Ge S6'
_chemical_name_mineral                   ?
_chemical_compound_source                ?
_chemical_name_structure_type            Cd~4~GeS~6~,mS44,9
_chemical_formula_weight                 714.6

# Bibliographic data

_publ_section_title
'GeCd~4~S~6~, a new defect tetrahedral structure type'                        
_journal_coden_ASTM                      INOCAJ
_journal_name_full                       'Inorg. Chem.'
_journal_year                            1971
_journal_volume                          10
_journal_page_first                      1754
_journal_page_last                       1756
_journal_language                        English
loop_
 _publ_author_name
 _publ_author_address
'Susa J.'
;
Texas Austin University
Department of Chemical Engineering
Austin
U.S.A. Texas
;
'Steinfink H.'
;
Texas Austin University
Department of Chemical Engineering
Austin
U.S.A. Texas
;

# Standardized crystallographic data

_cell_length_a                           12.346
_cell_length_b                           7.084
_cell_length_c                           12.378
_cell_angle_alpha                        90
_cell_angle_beta                         110.2
_cell_angle_gamma                        90
_cell_volume                             1015.98
_cell_formula_units_Z                    4
_space_group_IT_number                   9
_space_group_name_H-M_alt                'C 1 c 1'
loop_
 _space_group_symop_id
 _space_group_symop_operation_xyz
 1 'x, y, z'
 2 'x, -y, 1/2+z'
 3 '1/2+x, 1/2+y, z'
 4 '1/2+x, 1/2-y, 1/2+z'
loop_
 _atom_type_symbol
 S
 Ge
 Cd
loop_
 _atom_site_label
 _atom_site_type_symbol
 _atom_site_symmetry_multiplicity
 _atom_site_Wyckoff_symbol
 _atom_site_fract_x
 _atom_site_fract_y
 _atom_site_fract_z
 _atom_site_occupancy
 S1 S 4 a 0.0 0.0185 0.0 1
 S5 S 4 a -0.0007 0.2783 0.2639 1
 S4 S 4 a 0.0316 0.5171 0.0329 1
 Ge Ge 4 a 0.0754 0.2301 0.4504 1
 Cd2 Cd 4 a 0.1418 0.0816 0.2038 1
 S2 S 4 a 0.264 0.2361 0.504 1
 Cd1 Cd 4 a 0.2977 0.6061 0.2008 1
 S3 S 4 a 0.3194 0.255 0.1975 1
 Cd3 Cd 4 a 0.3266 0.1157 0.0127 1
 Cd4 Cd 4 a 0.5083 0.1967 0.359 1
 S6 S 4 a 0.693 0.2763 0.3184 1


_exptl_crystal_colour                    ?
_exptl_crystal_density_meas              ?
_exptl_crystal_density_diffrn            4.67
_cell_measurement_temperature            298.2(5)
_cell_measurement_radiation              'X-rays, Mo Ka'
_cell_measurement_wavelength             0.7093
_cell_measurement_reflns_used            55
_diffrn_ambient_temperature              298.2(5)
_diffrn_measurement_device               'automatic diffractometer'
_diffrn_measurement_device_type          ?
_diffrn_radiation_type                   'X-rays, Mo Ka'
_diffrn_reflns_number                    ?
_exptl_absorpt_coefficient_mu            ?
_exptl_absorpt_correction_type           yes
_computing_structure_solution            'Patterson and Fourier synthesis'
_refine_ls_number_parameters             ?
_refine_ls_number_reflns                 1255
_refine_ls_R_factor_gt                   0.0715
_refine_ls_wR_factor_gt                  0.0903

# End of data set 1000356


