##############################################################################
#                                                                            #
# Cd-Se-Si         # Cd4SiSe6 rt                                   #  540861 #
#                                                                            #
##############################################################################
#                                                                            #
#                           Pearson's Crystal Data                           #
#      Crystal Structure Database for Inorganic Compounds (on DVD)           #
#                              Release 2017/18                               #
#                  Editors: Pierre Villars and Karin Cenzual                 #
#                                                                            #
#   Copyright (c) ASM International & Material Phases Data System (MPDS),    #
# Switzerland & National Institute for Materials Science (NIMS), Japan, 2017 #
#                   All rights reserved. Version 2017.08                     #
#                                                                            #
#   This copy of Pearson's Crystal Data is licensed to:                      #
#   University of Alberta, Chemistry Department, 1-5 Installations License         #
#                                                                            #
##############################################################################

data_540861
_audit_creation_date                     2017-12-04
_audit_creation_method
;
Pearson's Crystal Data browser
;
#_database_code_PCD                      540861

# Entry summary

_chemical_formula_structural             'Cd~4~ Si Se~6~'
_chemical_formula_sum                    'Cd4 Se6 Si'
_chemical_name_mineral                   ?
_chemical_compound_source                ?
_chemical_name_structure_type            Cd~4~GeS~6~,mS44,9
_chemical_formula_weight                 951.5

# Bibliographic data

_publ_section_title
'Struktur und Eigenschaften von Cd~4~SiS~6~ Zur Kenntnis von Cd~4~SiSe~6~'    
_journal_coden_ASTM                      ZAACAB
_journal_name_full                       'Z. Anorg. Allg. Chem.'
_journal_year                            1972
_journal_volume                          388
_journal_page_first                      193
_journal_page_last                       206
_journal_language                        German
loop_
 _publ_author_name
 _publ_author_address
'Krebs B.'
;
Kiel Christian Albrecht University
Institut f\"ur Anorganische Chemie
Kiel
Germany
;
'Mandt J.'
;
G\"ottingen Georg August University
Institut f\"ur Anorganische Chemie
G\"ottingen
Germany
;

# Standardized crystallographic data

_cell_length_a                           12.816
_cell_length_b                           7.355
_cell_length_c                           12.84
_cell_angle_alpha                        90
_cell_angle_beta                         110.06
_cell_angle_gamma                        90
_cell_volume                             1136.9
_cell_formula_units_Z                    4
_space_group_IT_number                   9
_space_group_name_H-M_alt                'C 1 c 1'
loop_
 _space_group_symop_id
 _space_group_symop_operation_xyz
 1 'x, y, z'
 2 'x, -y, 1/2+z'
 3 '1/2+x, 1/2+y, z'
 4 '1/2+x, 1/2-y, 1/2+z'

# Atomic positions taken from type-defining entry

loop_
 _atom_type_symbol
 Se
 Si
 Cd
loop_
 _atom_site_label
 _atom_site_type_symbol
 _atom_site_symmetry_multiplicity
 _atom_site_Wyckoff_symbol
 _atom_site_fract_x
 _atom_site_fract_y
 _atom_site_fract_z
 _atom_site_occupancy
 Se1 Se 4 a 0.0 0.0177 0.0 1
 Se2 Se 4 a 0.0 0.2782 0.264 1
 Se3 Se 4 a 0.032 0.518 0.0318 1
 Si1 Si 4 a 0.076 0.2302 0.4511 1
 Cd1 Cd 4 a 0.1421 0.0814 0.2037 1
 Se4 Se 4 a 0.2641 0.2366 0.5037 1
 Cd2 Cd 4 a 0.298 0.6065 0.2006 1
 Se5 Se 4 a 0.3202 0.2551 0.198 1
 Cd3 Cd 4 a 0.3271 0.1156 0.0129 1
 Cd4 Cd 4 a 0.5092 0.1969 0.3591 1
 Se6 Se 4 a 0.6936 0.2761 0.3182 1


_exptl_crystal_colour                    red
_exptl_crystal_density_meas              5.52(1)
_exptl_crystal_density_diffrn            5.56
_cell_measurement_temperature            293
_cell_measurement_radiation              'X-rays, Cu Ka'
_cell_measurement_reflns_used            ?
_diffrn_ambient_temperature              ?
_diffrn_measurement_device
'precession and Weissenberg photographs'                                      
_diffrn_measurement_device_type          ?
_diffrn_radiation_type                   ?
_diffrn_reflns_number                    ?
_exptl_absorpt_coefficient_mu            ?
_exptl_absorpt_correction_type           ?
_computing_structure_solution            ?
_refine_ls_number_parameters             ?
_refine_ls_number_reflns                 ?
_refine_ls_R_factor_gt                   ?
_refine_ls_wR_factor_gt                  ?

# Published diffraction lines

loop_
 _refln_index_h
 _refln_index_k
 _refln_index_l
 _refln_d_spacing
 _refln_intensity_meas
 2 0 -2 52.2 1
 1 1 -2 47.8 1
 1 1 2 39.9 2
 1 1 -3 36.8 3
 3 1 -2 35.8 3
 2 2 -1 31.8 1
 2 0 -4 31.6 10
 0 2 2 31.35 6
 2 2 -2 30.1 20
 1 1 -4 29.19 2
 0 2 3 27.1 2
 5 1 -1 23.96 2
 1 3 -1 23.86 2
 1 3 1 23.24 1
 2 2 3 22.84 1
 4 2 1 21.79 1
 6 0 -2 21.35 3
 1 3 -3 21.24 8
 3 3 0 20.91 1
 6 0 -4 20.19 6
 0 2 5 20.12 3
 3 3 -3 20.06 1
 1 3 3 20.01 4
 4 2 -5 19.54 3
 6 2 -2 18.47 1
 0 4 0 18.37 1
 1 1 6 18.17 1
 5 3 -2 17.69 2
 1 3 -5 17.62 7
 3 1 5 17.56 3

# End of data set 540861


