##############################################################################
#                                                                            #
# Cd-S-Si          # Cd4SiS6 rt                                    #  540860 #
#                                                                            #
##############################################################################
#                                                                            #
#                           Pearson's Crystal Data                           #
#      Crystal Structure Database for Inorganic Compounds (on DVD)           #
#                              Release 2017/18                               #
#                  Editors: Pierre Villars and Karin Cenzual                 #
#                                                                            #
#   Copyright (c) ASM International & Material Phases Data System (MPDS),    #
# Switzerland & National Institute for Materials Science (NIMS), Japan, 2017 #
#                   All rights reserved. Version 2017.08                     #
#                                                                            #
#   This copy of Pearson's Crystal Data is licensed to:                      #
#   University of Alberta, Chemistry Department, 1-5 Installations License         #
#                                                                            #
##############################################################################

data_540860
_audit_creation_date                     2017-12-04
_audit_creation_method
;
Pearson's Crystal Data browser
;
#_database_code_PCD                      540860

# Entry summary

_chemical_formula_structural             'Cd~4~ Si S~6~'
_chemical_formula_sum                    'Cd4 S6 Si'
_chemical_name_mineral                   ?
_chemical_compound_source                ?
_chemical_name_structure_type            Cd~4~GeS~6~,mS44,9
_chemical_formula_weight                 670.1

# Bibliographic data

_publ_section_title
'Struktur und Eigenschaften von Cd~4~SiS~6~ Zur Kenntnis von Cd~4~SiSe~6~'    
_journal_coden_ASTM                      ZAACAB
_journal_name_full                       'Z. Anorg. Allg. Chem.'
_journal_year                            1972
_journal_volume                          388
_journal_page_first                      193
_journal_page_last                       206
_journal_language                        German
loop_
 _publ_author_name
 _publ_author_address
'Krebs B.'
;
Kiel Christian Albrecht University
Institut f\"ur Anorganische Chemie
Kiel
Germany
;
'Mandt J.'
;
G\"ottingen Georg August University
Institut f\"ur Anorganische Chemie
G\"ottingen
Germany
;

# Standardized crystallographic data

_cell_length_a                           12.31
_cell_length_b                           7.041
_cell_length_c                           12.336
_cell_angle_alpha                        90
_cell_angle_beta                         110.38
_cell_angle_gamma                        90
_cell_volume                             1002.29
_cell_formula_units_Z                    4
_space_group_IT_number                   9
_space_group_name_H-M_alt                'C 1 c 1'
loop_
 _space_group_symop_id
 _space_group_symop_operation_xyz
 1 'x, y, z'
 2 'x, -y, 1/2+z'
 3 '1/2+x, 1/2+y, z'
 4 '1/2+x, 1/2-y, 1/2+z'
loop_
 _atom_type_symbol
 S
 Si
 Cd
loop_
 _atom_site_label
 _atom_site_type_symbol
 _atom_site_symmetry_multiplicity
 _atom_site_Wyckoff_symbol
 _atom_site_fract_x
 _atom_site_fract_y
 _atom_site_fract_z
 _atom_site_occupancy
 S(5) S 4 a 0.0 0.0109 0.0 1
 S(6) S 4 a -0.0018 0.2744 0.2705 1
 S(1) S 4 a 0.0291 0.5257 0.0325 1
 Si Si 4 a 0.0721 0.2317 0.4535 1
 Cd(3) Cd 4 a 0.1383 0.078 0.2069 1
 S(4) S 4 a 0.2542 0.2386 0.5027 1
 Cd(4) Cd 4 a 0.2945 0.6057 0.2022 1
 S(2) S 4 a 0.3169 0.2515 0.2 1
 Cd(1) Cd 4 a 0.3236 0.1142 0.0147 1
 Cd(2) Cd 4 a 0.5069 0.1962 0.3625 1
 S(3) S 4 a 0.6902 0.2708 0.3204 1


_exptl_crystal_colour                    ?
_exptl_crystal_density_meas              4.41(1)
_exptl_crystal_density_diffrn            4.44
_cell_measurement_temperature            293
_cell_measurement_radiation              'X-rays, Mo Ka'
_cell_measurement_wavelength             0.70926
_cell_measurement_reflns_used            ?
_diffrn_ambient_temperature              ?
_diffrn_measurement_device               'automatic diffractometer'
_diffrn_measurement_device_type          Hilger-Watts
_diffrn_radiation_type                   'X-rays, Mo Ka'
_diffrn_radiation_wavelength             0.70926
_diffrn_reflns_number                    ?
_exptl_absorpt_coefficient_mu            9.54
_exptl_absorpt_correction_type           ?
_computing_structure_solution            'Patterson and Fourier synthesis'
_refine_ls_number_parameters             ?
_refine_ls_number_reflns                 ?
_refine_ls_R_factor_gt                   0.037
_refine_ls_wR_factor_gt                  ?

# End of data set 540860


