##############################################################################
#                                                                            #
# Cd-S-Si          # Cd4SiS6 rt                                    #  376284 #
#                                                                            #
##############################################################################
#                                                                            #
#                           Pearson's Crystal Data                           #
#      Crystal Structure Database for Inorganic Compounds (on DVD)           #
#                              Release 2017/18                               #
#                  Editors: Pierre Villars and Karin Cenzual                 #
#                                                                            #
#   Copyright (c) ASM International & Material Phases Data System (MPDS),    #
# Switzerland & National Institute for Materials Science (NIMS), Japan, 2017 #
#                   All rights reserved. Version 2017.08                     #
#                                                                            #
#   This copy of Pearson's Crystal Data is licensed to:                      #
#   University of Alberta, Chemistry Department, 1-5 Installations License         #
#                                                                            #
##############################################################################

data_376284
_audit_creation_date                     2017-12-01
_audit_creation_method
;
Pearson's Crystal Data browser
;
#_database_code_PCD                      376284

# Entry summary

_chemical_formula_structural             'Cd~4~ Si S~6~'
_chemical_formula_sum                    'Cd4 S6 Si'
_chemical_name_mineral                   ?
_chemical_compound_source                ?
_chemical_name_structure_type            Cd~4~GeS~6~,mS44,9
_chemical_formula_weight                 670.1

# Bibliographic data

_publ_section_title                      'The CdS-SiS~2~ and CdSe-SiSe~2~'
_journal_coden_ASTM                      RJICAQ
_journal_name_full                       'Russ. J. Inorg. Chem.'
_journal_year                            1985
_journal_volume                          30
_journal_page_first                      116
_journal_page_last                       118
_journal_language                        English
loop_
 _publ_author_name
 _publ_author_address
'Odin I.N.'
;
Moscow M.V. Lomonosov State University
Department of Chemistry
Moscow
Russia
;
'Ivanov V.A.'
;
Moscow M.V. Lomonosov State University
Moscow
Russia
;
'Novoselova A.V.'
;
Moscow M.V. Lomonosov State University
Moscow
Russia
;

# Standardized crystallographic data

_cell_length_a                           12.32
_cell_length_b                           7.03
_cell_length_c                           12.3
_cell_angle_alpha                        90
_cell_angle_beta                         110.6
_cell_angle_gamma                        90
_cell_volume                             997.2
_cell_formula_units_Z                    4
_space_group_IT_number                   9
_space_group_name_H-M_alt                'C 1 c 1'
loop_
 _space_group_symop_id
 _space_group_symop_operation_xyz
 1 'x, y, z'
 2 'x, -y, 1/2+z'
 3 '1/2+x, 1/2+y, z'
 4 '1/2+x, 1/2-y, 1/2+z'

# Atomic positions taken from type-defining entry

loop_
 _atom_type_symbol
 S
 Si
 Cd
loop_
 _atom_site_label
 _atom_site_type_symbol
 _atom_site_symmetry_multiplicity
 _atom_site_Wyckoff_symbol
 _atom_site_fract_x
 _atom_site_fract_y
 _atom_site_fract_z
 _atom_site_occupancy
 S1 S 4 a 0.0 0.0177 0.0 1
 S2 S 4 a 0.0 0.2782 0.264 1
 S3 S 4 a 0.032 0.518 0.0318 1
 Si1 Si 4 a 0.076 0.2302 0.4511 1
 Cd1 Cd 4 a 0.1421 0.0814 0.2037 1
 S4 S 4 a 0.2641 0.2366 0.5037 1
 Cd2 Cd 4 a 0.298 0.6065 0.2006 1
 S5 S 4 a 0.3202 0.2551 0.198 1
 Cd3 Cd 4 a 0.3271 0.1156 0.0129 1
 Cd4 Cd 4 a 0.5092 0.1969 0.3591 1
 S6 S 4 a 0.6936 0.2761 0.3182 1


_exptl_crystal_colour                    yellow
_exptl_crystal_density_meas              ?
_exptl_crystal_density_diffrn            4.46
_cell_measurement_temperature            ?
_cell_measurement_radiation              'X-rays, Cu Ka'
_cell_measurement_reflns_used            ?
_diffrn_ambient_temperature              ?
_diffrn_measurement_device               'Guinier-de Wolff film'
_diffrn_measurement_device_type          ?
_diffrn_radiation_type                   ?
_diffrn_reflns_number                    ?
_exptl_absorpt_coefficient_mu            ?
_exptl_absorpt_correction_type           ?
_computing_structure_solution            ?
_refine_ls_number_parameters             ?
_refine_ls_number_reflns                 ?
_refine_ls_R_factor_gt                   ?
_refine_ls_wR_factor_gt                  ?

# End of data set 376284


