##############################################################################
#                                                                            #
# Al-Cd-O          # CdAl4O7                                       #  549399 #
#                                                                            #
##############################################################################
#                                                                            #
#                           Pearson's Crystal Data                           #
#      Crystal Structure Database for Inorganic Compounds (on DVD)           #
#                              Release 2017/18                               #
#                  Editors: Pierre Villars and Karin Cenzual                 #
#                                                                            #
#   Copyright (c) ASM International & Material Phases Data System (MPDS),    #
# Switzerland & National Institute for Materials Science (NIMS), Japan, 2017 #
#                   All rights reserved. Version 2017.08                     #
#                                                                            #
#   This copy of Pearson's Crystal Data is licensed to:                      #
#   University of Alberta, Chemistry Department, 1-5 Installations License         #
#                                                                            #
##############################################################################

data_549399
_audit_creation_date                     2017-12-04
_audit_creation_method
;
Pearson's Crystal Data browser
;
#_database_code_PCD                      549399

# Entry summary

_chemical_formula_structural             'Cd Al~4~ O~7~'
_chemical_formula_sum                    'Al4 Cd O7'
_chemical_name_mineral                   ?
_chemical_compound_source                ?
_chemical_name_structure_type            CaAl~4~O~7~,mS48,15
_chemical_formula_weight                 332.3

# Bibliographic data

_publ_section_title
;
Sur la structure et les propri\'et\'es des compos\'es form\'es par l'alumine avec les oxydes des \'el\'ements du groupe IIb
;
_journal_coden_ASTM                      CHDCAQ
_journal_name_full                       'C. R. Seances Acad. Sci., Ser. C'
_journal_year                            1966
_journal_volume                          263
_journal_page_first                      1220
_journal_page_last                       1222
_journal_language                        French
loop_
 _publ_author_name
 _publ_author_address
'Colin F.'
;
Centre National de la Recherche Scientifique (CNRS)
Vitry-sur-Seine
France
;
'Th\'ery J.'
;
Centre National de la Recherche Scientifique (CNRS)
Vitry-sur-Seine
France
;

# Standardized crystallographic data

_cell_length_a                           12.68
_cell_length_b                           8.86
_cell_length_c                           5.4
_cell_angle_alpha                        90
_cell_angle_beta                         105.98
_cell_angle_gamma                        90
_cell_volume                             583.2
_cell_formula_units_Z                    4
_space_group_IT_number                   15
_space_group_name_H-M_alt                'C 1 2/c 1'
loop_
 _space_group_symop_id
 _space_group_symop_operation_xyz
 1 'x, y, z'
 2 '-x, -y, -z'
 3 '-x, y, 1/2-z'
 4 'x, -y, 1/2+z'
 5 '1/2+x, 1/2+y, z'
 6 '1/2-x, 1/2-y, -z'
 7 '1/2-x, 1/2+y, 1/2-z'
 8 '1/2+x, 1/2-y, 1/2+z'

# Atomic positions taken from type-defining entry

loop_
 _atom_type_symbol
 O
 Al
 Cd
loop_
 _atom_site_label
 _atom_site_type_symbol
 _atom_site_symmetry_multiplicity
 _atom_site_Wyckoff_symbol
 _atom_site_fract_x
 _atom_site_fract_y
 _atom_site_fract_z
 _atom_site_occupancy
 O1 O 8 f 0.1149 0.4493 0.0641 1
 O2 O 8 f 0.1935 0.0581 0.0805 1
 Al1 Al 8 f 0.3353 0.0863 0.1971 1
 O3 O 8 f 0.3805 0.2524 0.3518 1
 Al2 Al 8 f 0.3805 0.4411 0.2582 1
 O4 O 4 e 0 0.0325 0.25 1
 Cd1 Cd 4 e 0 0.3092 0.25 1


_exptl_crystal_colour                    ?
_exptl_crystal_density_meas              ?
_exptl_crystal_density_diffrn            3.78
_cell_measurement_temperature            ?
_cell_measurement_radiation              'X-rays, Co Ka'
_cell_measurement_reflns_used            ?
_diffrn_ambient_temperature              ?
_diffrn_measurement_device               'Debye-Scherrer film'
_diffrn_measurement_device_type          ?
_diffrn_radiation_type                   ?
_diffrn_reflns_number                    ?
_exptl_absorpt_coefficient_mu            ?
_exptl_absorpt_correction_type           ?
_computing_structure_solution            ?
_refine_ls_number_parameters             ?
_refine_ls_number_reflns                 ?
_refine_ls_R_factor_gt                   ?
_refine_ls_wR_factor_gt                  ?

# End of data set 549399


