##############################################################################
#                                                                            #
# Cd-P             # CdP4                                          #  309847 #
#                                                                            #
##############################################################################
#                                                                            #
#                           Pearson's Crystal Data                           #
#      Crystal Structure Database for Inorganic Compounds (on DVD)           #
#                              Release 2017/18                               #
#                  Editors: Pierre Villars and Karin Cenzual                 #
#                                                                            #
#   Copyright (c) ASM International & Material Phases Data System (MPDS),    #
# Switzerland & National Institute for Materials Science (NIMS), Japan, 2017 #
#                   All rights reserved. Version 2017.08                     #
#                                                                            #
#   This copy of Pearson's Crystal Data is licensed to:                      #
#   University of Alberta, Chemistry Department, 1-5 Installations License         #
#                                                                            #
##############################################################################

data_309847
_audit_creation_date                     2017-12-01
_audit_creation_method
;
Pearson's Crystal Data browser
;
#_database_code_PCD                      309847

# Entry summary

_chemical_formula_structural             'Cd P~4~'
_chemical_formula_sum                    'Cd P4'
_chemical_name_mineral                   ?
_chemical_compound_source                ?
_chemical_name_structure_type            CdP~4~,mP10,14
_chemical_formula_weight                 236.3

# Bibliographic data

_publ_section_title
'Phase relationships in the CdP~4~-ZnP~2~-CdAs~2~-ZnAs~2~ system'             
_journal_coden_ASTM                      INOMAF
_journal_name_full                       'Inorg. Mater.'
_journal_year                            1996
_journal_volume                          32
_journal_page_first                      579
_journal_page_last                       582
_journal_language                        English
loop_
 _publ_author_name
 _publ_author_address
'Yakimovich V.N.'
;
Belarusian Academy of Sciences
Institute of Solid State Physics and Semiconductors
Minsk
Belarus
;
'Rubtsov V.A.'
;
Belarusian Academy of Sciences
Institute of Solid State Physics and Semiconductors
Minsk
Belarus
;
'Trukhan V.M.'
;
Belarusian Academy of Sciences
Institute of Solid State Physics and Semiconductors
Minsk
Belarus
;

# Standardized crystallographic data

_cell_length_a                           5.252
_cell_length_b                           5.153
_cell_length_c                           7.613
_cell_angle_alpha                        90
_cell_angle_beta                         99.07
_cell_angle_gamma                        90
_cell_volume                             203.5
_cell_formula_units_Z                    2
_space_group_IT_number                   14
_space_group_name_H-M_alt                'P 1 21/c 1'
loop_
 _space_group_symop_id
 _space_group_symop_operation_xyz
 1 'x, y, z'
 2 '-x, -y, -z'
 3 '-x, 1/2+y, 1/2-z'
 4 'x, 1/2-y, 1/2+z'

# Atomic positions taken from type-defining entry

loop_
 _atom_type_symbol
 P
 Cd
loop_
 _atom_site_label
 _atom_site_type_symbol
 _atom_site_symmetry_multiplicity
 _atom_site_Wyckoff_symbol
 _atom_site_fract_x
 _atom_site_fract_y
 _atom_site_fract_z
 _atom_site_occupancy
 P1 P 4 e 0.259 0.295 0.250 1
 P2 P 4 e 0.398 0.603 0.097 1
 Cd1 Cd 2 a 0 0 0 1


_exptl_crystal_colour                    ?
_exptl_crystal_density_meas              ?
_exptl_crystal_density_diffrn            3.86
_cell_measurement_temperature            ?
_cell_measurement_radiation              X-rays
_cell_measurement_reflns_used            ?
_diffrn_ambient_temperature              ?
_diffrn_measurement_device               film
_diffrn_measurement_device_type          ?
_diffrn_radiation_type                   ?
_diffrn_reflns_number                    ?
_exptl_absorpt_coefficient_mu            ?
_exptl_absorpt_correction_type           ?
_computing_structure_solution            ?
_refine_ls_number_parameters             ?
_refine_ls_number_reflns                 ?
_refine_ls_R_factor_gt                   ?
_refine_ls_wR_factor_gt                  ?

# End of data set 309847


