##############################################################################
#                                                                            #
# Cd-Se            # CdSe                                          #  531423 #
#                                                                            #
##############################################################################
#                                                                            #
#                           Pearson's Crystal Data                           #
#      Crystal Structure Database for Inorganic Compounds (on DVD)           #
#                              Release 2017/18                               #
#                  Editors: Pierre Villars and Karin Cenzual                 #
#                                                                            #
#   Copyright (c) ASM International & Material Phases Data System (MPDS),    #
# Switzerland & National Institute for Materials Science (NIMS), Japan, 2017 #
#                   All rights reserved. Version 2017.08                     #
#                                                                            #
#   This copy of Pearson's Crystal Data is licensed to:                      #
#   University of Alberta, Chemistry Department, 1-5 Installations License         #
#                                                                            #
##############################################################################

data_531423
_audit_creation_date                     2017-12-04
_audit_creation_method
;
Pearson's Crystal Data browser
;
#_database_code_PCD                      531423

# Entry summary

_chemical_formula_structural             'Cd Se'
_chemical_formula_sum                    'Cd Se'
_chemical_name_mineral                   cadmoselite
_chemical_compound_source                ?
_chemical_name_structure_type            ZnO,hP4,186
_chemical_formula_weight                 191.4
_chemical_melting_point                  1523

# Bibliographic data

_publ_section_title
'The system (Cd~3~As~2~)~1-x~(2CdSe)~x~'                                      
_journal_coden_ASTM                      INOMAF
_journal_name_full                       'Inorg. Mater.'
_journal_year                            1973
_journal_volume                          9
_journal_page_first                      1354
_journal_page_last                       1356
_journal_language                        English
loop_
 _publ_author_name
 _publ_author_address
'Golovei M.I.'
;
Uzhhorod State University
Uzhhorod
Ukraine
;
'Rigan M.Y.'
;
Uzhhorod State University
Uzhhorod
Ukraine
;
'Olekseyuk I.D.'
;
Uzhhorod State University
Uzhhorod
Ukraine
;
'Voroshilov Y.V.'
;
Uzhhorod State University
Uzhhorod
Ukraine
;

# Standardized crystallographic data

_cell_length_a                           4.3
_cell_length_b                           4.3
_cell_length_c                           7.033
_cell_angle_alpha                        90
_cell_angle_beta                         90
_cell_angle_gamma                        120
_cell_volume                             112.62
_cell_formula_units_Z                    2
_space_group_IT_number                   186
_space_group_name_H-M_alt                'P 63 m c'
loop_
 _space_group_symop_id
 _space_group_symop_operation_xyz
 1 'x, y, z'
 2 '-x+y, -x, z'
 3 '-x+y, y, z'
 4 '-x, -x+y, 1/2+z'
 5 '-x, -y, 1/2+z'
 6 '-y, -x, z'
 7 '-y, x-y, z'
 8 'x, x-y, z'
 9 'x-y, -y, 1/2+z'
 10 'x-y, x, 1/2+z'
 11 'y, -x+y, 1/2+z'
 12 'y, x, 1/2+z'

# Atomic positions taken from type-defining entry

loop_
 _atom_type_symbol
 Se
 Cd
loop_
 _atom_site_label
 _atom_site_type_symbol
 _atom_site_symmetry_multiplicity
 _atom_site_Wyckoff_symbol
 _atom_site_fract_x
 _atom_site_fract_y
 _atom_site_fract_z
 _atom_site_occupancy
 Se1 Se 2 b 0.333333 0.666667 0.0 1
 Cd1 Cd 2 b 0.333333 0.666667 0.381 1


_exptl_crystal_colour                    ?
_exptl_crystal_density_meas              5.82
_exptl_crystal_density_diffrn            5.64
_cell_measurement_temperature            ?
_cell_measurement_radiation              X-rays
_cell_measurement_reflns_used            ?
_diffrn_ambient_temperature              ?
_diffrn_measurement_device               film
_diffrn_measurement_device_type          ?
_diffrn_radiation_type                   ?
_diffrn_reflns_number                    ?
_exptl_absorpt_coefficient_mu            ?
_exptl_absorpt_correction_type           ?
_computing_structure_solution            ?
_refine_ls_number_parameters             ?
_refine_ls_number_reflns                 ?
_refine_ls_R_factor_gt                   ?
_refine_ls_wR_factor_gt                  ?

# End of data set 531423


