##############################################################################
#                                                                            #
# Cd-O-V           # CdV2O6 ht                                     # 1100847 #
#                                                                            #
##############################################################################
#                                                                            #
#                           Pearson's Crystal Data                           #
#      Crystal Structure Database for Inorganic Compounds (on DVD)           #
#                              Release 2017/18                               #
#                  Editors: Pierre Villars and Karin Cenzual                 #
#                                                                            #
#   Copyright (c) ASM International & Material Phases Data System (MPDS),    #
# Switzerland & National Institute for Materials Science (NIMS), Japan, 2017 #
#                   All rights reserved. Version 2017.08                     #
#                                                                            #
#   This copy of Pearson's Crystal Data is licensed to:                      #
#   University of Alberta, Chemistry Department, 1-5 Installations License         #
#                                                                            #
##############################################################################

data_1100847
_audit_creation_date                     2017-12-04
_audit_creation_method
;
Pearson's Crystal Data browser
;
#_database_code_PCD                      1100847

# Entry summary

_chemical_formula_structural             'Cd V~2~ O~6~'
_chemical_formula_sum                    'Cd O6 V2'
_chemical_name_mineral                   ?
_chemical_compound_source                ?
_chemical_name_structure_type            CaV~2~O~6~,mS18,12
_chemical_formula_weight                 310.3
_chemical_melting_point                  1073

# Bibliographic data

_publ_section_title
;
Polymorphism of the Bivalent Metal Vanadates MeV~2~O~6~ (Me= Mg, Ca, Mn, Co, Ni, Cu, Zn, Cd)
;
_journal_coden_ASTM                      JSSCBI
_journal_name_full                       'J. Solid State Chem.'
_journal_year                            1987
_journal_volume                          69
_journal_page_first                      299
_journal_page_last                       311
_journal_language                        English
loop_
 _publ_author_name
 _publ_author_address
'Mocala K.'
;
Polish Academy of Sciences
Institute of Catalysis and Surface Chemistry
Cracow
Poland
;
'Ziolkowski J.'
;
Polish Academy of Sciences
Institute of Catalysis and Surface Chemistry
Cracow
Poland
;

# Standardized crystallographic data

_cell_length_a                           9.837
_cell_length_b                           3.618
_cell_length_c                           7.02
_cell_angle_alpha                        90
_cell_angle_beta                         103.58
_cell_angle_gamma                        90
_cell_volume                             242.9
_cell_formula_units_Z                    2
_space_group_IT_number                   12
_space_group_name_H-M_alt                'C 1 2/m 1'
loop_
 _space_group_symop_id
 _space_group_symop_operation_xyz
 1 'x, y, z'
 2 '-x, -y, -z'
 3 '-x, y, -z'
 4 'x, -y, z'
 5 '1/2+x, 1/2+y, z'
 6 '1/2-x, 1/2-y, -z'
 7 '1/2-x, 1/2+y, -z'
 8 '1/2+x, 1/2-y, z'

# Atomic positions taken from type-defining entry

loop_
 _atom_type_symbol
 O
 V
 Cd
loop_
 _atom_site_label
 _atom_site_type_symbol
 _atom_site_symmetry_multiplicity
 _atom_site_Wyckoff_symbol
 _atom_site_fract_x
 _atom_site_fract_y
 _atom_site_fract_z
 _atom_site_occupancy
 O1 O 4 i 0.1434 0 0.1182 1
 O2 O 4 i 0.2535 0 0.6066 1
 V1 V 4 i 0.2658 0 0.3309 1
 O3 O 4 i 0.4126 0 0.2781 1
 Cd1 Cd 2 b 0 0.5 0 1


_exptl_crystal_colour                    ?
_exptl_crystal_density_meas              ?
_exptl_crystal_density_diffrn            4.24
_cell_measurement_temperature            523
_cell_measurement_radiation              'X-rays, Cu Ka'
_cell_measurement_reflns_used            ?
_diffrn_ambient_temperature              ?
_diffrn_measurement_device               'automatic diffractometer'
_diffrn_measurement_device_type          ?
_diffrn_radiation_type                   ?
_diffrn_reflns_number                    ?
_exptl_absorpt_coefficient_mu            ?
_exptl_absorpt_correction_type           ?
_computing_structure_solution            ?
_refine_ls_number_parameters             ?
_refine_ls_number_reflns                 ?
_refine_ls_R_factor_gt                   ?
_refine_ls_wR_factor_gt                  ?

# End of data set 1100847


