##############################################################################
#                                                                            #
# Cd-O-V           # CdV2O6 rt                                     #  312941 #
#                                                                            #
##############################################################################
#                                                                            #
#                           Pearson's Crystal Data                           #
#      Crystal Structure Database for Inorganic Compounds (on DVD)           #
#                              Release 2017/18                               #
#                  Editors: Pierre Villars and Karin Cenzual                 #
#                                                                            #
#   Copyright (c) ASM International & Material Phases Data System (MPDS),    #
# Switzerland & National Institute for Materials Science (NIMS), Japan, 2017 #
#                   All rights reserved. Version 2017.08                     #
#                                                                            #
#   This copy of Pearson's Crystal Data is licensed to:                      #
#   University of Alberta, Chemistry Department, 1-5 Installations License         #
#                                                                            #
##############################################################################

data_312941
_audit_creation_date                     2017-12-01
_audit_creation_method
;
Pearson's Crystal Data browser
;
#_database_code_PCD                      312941

# Entry summary

_chemical_formula_structural             'Cd V~2~ O~6~'
_chemical_formula_sum                    'Cd O6 V2'
_chemical_name_mineral                   ?
_chemical_compound_source                ?
_chemical_name_structure_type            ThTi~2~O~6~,mS18,12
_chemical_formula_weight                 310.3

# Bibliographic data

_publ_section_title
;
Les vanadates de cadmium. Structure cristalline du m\'etavanadate de haute temp\'erature
;
_journal_coden_ASTM                      BSCFAS
_journal_name_full                       'Bull. Soc. Chim. Fr.'
_journal_year                            1969
_journal_volume                          ?
_journal_page_first                      736
_journal_page_last                       740
_journal_language                        French
loop_
 _publ_author_name
 _publ_author_address
'Bouloux J.C.'
;
Talence Bordeaux I University
Laboratoire de Chimie Min\'erale Structurale
Talence
France
;
'Galy J.'
;
Talence Bordeaux I University
Laboratoire de Chimie Min\'erale Structurale
Talence
France
;

# Standardized crystallographic data

_cell_length_a                           9.359
_cell_length_b                           3.568
_cell_length_c                           6.98
_cell_angle_alpha                        90
_cell_angle_beta                         112.
_cell_angle_gamma                        90
_cell_volume                             216.1
_cell_formula_units_Z                    2
_space_group_IT_number                   12
_space_group_name_H-M_alt                'C 1 2/m 1'
loop_
 _space_group_symop_id
 _space_group_symop_operation_xyz
 1 'x, y, z'
 2 '-x, -y, -z'
 3 '-x, y, -z'
 4 'x, -y, z'
 5 '1/2+x, 1/2+y, z'
 6 '1/2-x, 1/2-y, -z'
 7 '1/2-x, 1/2+y, -z'
 8 '1/2+x, 1/2-y, z'
loop_
 _atom_type_symbol
 O
 V
 Cd
loop_
 _atom_site_label
 _atom_site_type_symbol
 _atom_site_symmetry_multiplicity
 _atom_site_Wyckoff_symbol
 _atom_site_fract_x
 _atom_site_fract_y
 _atom_site_fract_z
 _atom_site_occupancy
 O1 O 4 i 0.0275 0 0.1976 1
 V1 V 4 i 0.1881 0 0.1397 1
 O2 O 4 i 0.3312 0 0.3735 1
 O3 O 4 i 0.6936 0 0.0623 1
 Cd Cd 2 c 0 0 0.5 1


_exptl_crystal_colour                    ?
_exptl_crystal_density_meas              4.66(2)
_exptl_crystal_density_diffrn            4.77
_cell_measurement_temperature            ?
_cell_measurement_radiation              'X-rays, Cu Ka'
_cell_measurement_reflns_used            ?
_diffrn_ambient_temperature              ?
_diffrn_measurement_device               'Weissenberg photographs'
_diffrn_measurement_device_type          ?
_diffrn_radiation_type                   'X-rays, Cu Ka'
_diffrn_reflns_number                    ?
_exptl_absorpt_coefficient_mu            ?
_exptl_absorpt_correction_type           ?
_computing_structure_solution            'starting values from the literature'
_refine_ls_number_parameters             ?
_refine_ls_number_reflns                 ?
_refine_ls_R_factor_gt                   0.045
_refine_ls_wR_factor_gt                  ?

# Published diffraction lines

loop_
 _refln_index_h
 _refln_index_k
 _refln_index_l
 _refln_d_spacing
 _refln_intensity_meas
 0 0 1 64.5 8
 2 0 -1 44.6 65
 2 0 0 43.4 6
 1 1 0 32.99 60
 2 0 -2 32.36 75
 2 0 1 30.99 100
 1 1 1 27.79 40
 1 1 -2 24.9 10
 3 1 -1 23.43 40
 2 0 -3 23.04 8
 3 1 0 22.47 14
 4 0 0 21.67 16
 0 0 3 21.49 8
 3 1 1 19.52 14
 4 0 -3 19.33 24
 0 2 0 17.85 18
 2 0 -4 17.4 14
 1 1 3 16.93 7
 5 1 -2 16.34 7
 2 2 -2 15.62 16
 5 1 0 15.59 16
 4 0 2 15.47 12
 6 0 -1 15.4 8
 5 1 -3 15.33 10
 6 0 0 14.46 9
 4 2 0 13.78 4
 1 1 4 13.74 5
 4 0 3 12.98 4
 1 1 -5 12.64 5
 7 1 -2 12.53 3

# End of data set 312941


