##############################################################################
#                                                                            #
# Cd-O-V           # CdV2O6 rt                                     #  308787 #
#                                                                            #
##############################################################################
#                                                                            #
#                           Pearson's Crystal Data                           #
#      Crystal Structure Database for Inorganic Compounds (on DVD)           #
#                              Release 2017/18                               #
#                  Editors: Pierre Villars and Karin Cenzual                 #
#                                                                            #
#   Copyright (c) ASM International & Material Phases Data System (MPDS),    #
# Switzerland & National Institute for Materials Science (NIMS), Japan, 2017 #
#                   All rights reserved. Version 2017.08                     #
#                                                                            #
#   This copy of Pearson's Crystal Data is licensed to:                      #
#   University of Alberta, Chemistry Department, 1-5 Installations License         #
#                                                                            #
##############################################################################

data_308787
_audit_creation_date                     2017-12-01
_audit_creation_method
;
Pearson's Crystal Data browser
;
#_database_code_PCD                      308787

# Entry summary

_chemical_formula_structural             'Cd V~2~ O~6~'
_chemical_formula_sum                    'Cd O6 V2'
_chemical_name_mineral                   ?
_chemical_compound_source                ?
_chemical_name_structure_type            ThTi~2~O~6~,mS18,12
_chemical_formula_weight                 310.3

# Bibliographic data

_publ_section_title
'Structure cristalline de la phase ZnV~2~O~6~'                                
_journal_coden_ASTM                      CHDCAQ
_journal_name_full                       'C. R. Seances Acad. Sci., Ser. C'
_journal_year                            1968
_journal_volume                          267
_journal_page_first                      227
_journal_page_last                       230
_journal_language                        French
loop_
 _publ_author_name
 _publ_author_address
'Agenault J.'
;
Paris Sorbonne University
Laboratoire de Chimie Min\'erale
Paris
France
;
'Rimsky A.'
;
Paris VI Pierre et Marie Curie University
Paris
France
;

# Standardized crystallographic data

_cell_length_a                           9.365
_cell_length_b                           3.568
_cell_length_c                           6.956
_cell_angle_alpha                        90
_cell_angle_beta                         112.15
_cell_angle_gamma                        90
_cell_volume                             215.3
_cell_formula_units_Z                    2
_space_group_IT_number                   12
_space_group_name_H-M_alt                'C 1 2/m 1'
loop_
 _space_group_symop_id
 _space_group_symop_operation_xyz
 1 'x, y, z'
 2 '-x, -y, -z'
 3 '-x, y, -z'
 4 'x, -y, z'
 5 '1/2+x, 1/2+y, z'
 6 '1/2-x, 1/2-y, -z'
 7 '1/2-x, 1/2+y, -z'
 8 '1/2+x, 1/2-y, z'

# Atomic positions taken from type-defining entry

loop_
 _atom_type_symbol
 O
 V
 Cd
loop_
 _atom_site_label
 _atom_site_type_symbol
 _atom_site_symmetry_multiplicity
 _atom_site_Wyckoff_symbol
 _atom_site_fract_x
 _atom_site_fract_y
 _atom_site_fract_z
 _atom_site_occupancy
 O1 O 4 i 0.02 0 0.185 1
 V1 V 4 i 0.1764 0 0.1052 1
 O2 O 4 i 0.34 0 0.385 1
 O3 O 4 i 0.717 0 0.09 1
 Cd1 Cd 2 c 0 0 0.5 1


_exptl_crystal_colour                    ?
_exptl_crystal_density_meas              ?
_exptl_crystal_density_diffrn            4.79
_cell_measurement_temperature            ?
_cell_measurement_radiation              X-rays
_cell_measurement_reflns_used            ?
_diffrn_ambient_temperature              ?
_diffrn_measurement_device               film
_diffrn_measurement_device_type          ?
_diffrn_radiation_type                   ?
_diffrn_reflns_number                    ?
_exptl_absorpt_coefficient_mu            ?
_exptl_absorpt_correction_type           ?
_computing_structure_solution            ?
_refine_ls_number_parameters             ?
_refine_ls_number_reflns                 ?
_refine_ls_R_factor_gt                   ?
_refine_ls_wR_factor_gt                  ?

# End of data set 308787


