##############################################################################
#                                                                            #
# Ce-Ge-Ni         # Ce11Ni4Ge6                                    # 1008249 #
#                                                                            #
##############################################################################
#                                                                            #
#                           Pearson's Crystal Data                           #
#      Crystal Structure Database for Inorganic Compounds (on DVD)           #
#                              Release 2017/18                               #
#                  Editors: Pierre Villars and Karin Cenzual                 #
#                                                                            #
#   Copyright (c) ASM International & Material Phases Data System (MPDS),    #
# Switzerland & National Institute for Materials Science (NIMS), Japan, 2017 #
#                   All rights reserved. Version 2017.08                     #
#                                                                            #
#   This copy of Pearson's Crystal Data is licensed to:                      #
#   University of Alberta, Chemistry Department, 1-5 Installations License         #
#                                                                            #
##############################################################################

data_1008249
_audit_creation_date                     2017-12-04
_audit_creation_method
;
Pearson's Crystal Data browser
;
#_database_code_PCD                      1008249

# Entry summary

_chemical_formula_structural             'Ce~11~ Ni~4~ Ge~6~'
_chemical_formula_sum                    'Ce11 Ge6 Ni4'
_chemical_name_mineral                   ?
_chemical_compound_source                ?
_chemical_name_structure_type            La~11~Ni~4~Ge~6~,mS42,12
_chemical_formula_weight                 2211.7

# Bibliographic data

_publ_section_title
;
Ce-Ni-Ge and Nd-Ni-Ge phase diagrams: Systematics of rare earth-nickel-germanium compounds
;
_journal_coden_ASTM                      JALCEU
_journal_name_full                       'J. Alloys Compd.'
_journal_year                            1996
_journal_volume                          236
_journal_page_first                      206
_journal_page_last                       211
_journal_language                        English
loop_
 _publ_author_name
 _publ_author_address
'Salamakha P.S.'
;
Lviv Ivan Franko National University
Department of Inorganic Chemistry
Lviv
Ukraine
;
'Konyk M.B.'
;
Lviv Ivan Franko National University
Department of Inorganic Chemistry
Lviv
Ukraine
;
'Sologub O.L.'
;
Lviv Ivan Franko National University
Department of Inorganic Chemistry
Lviv
Ukraine
;
'Bodak O.I.'
;
Lviv Ivan Franko National University
Department of Inorganic Chemistry
Lviv
Ukraine
;

# Standardized crystallographic data

_cell_length_a                           18.236
_cell_length_b                           4.321
_cell_length_c                           13.939
_cell_angle_alpha                        90
_cell_angle_beta                         106.74
_cell_angle_gamma                        90
_cell_volume                             1051.8
_cell_formula_units_Z                    2
_space_group_IT_number                   12
_space_group_name_H-M_alt                'C 1 2/m 1'
loop_
 _space_group_symop_id
 _space_group_symop_operation_xyz
 1 'x, y, z'
 2 '-x, -y, -z'
 3 '-x, y, -z'
 4 'x, -y, z'
 5 '1/2+x, 1/2+y, z'
 6 '1/2-x, 1/2-y, -z'
 7 '1/2-x, 1/2+y, -z'
 8 '1/2+x, 1/2-y, z'

# Atomic positions taken from type-defining entry

loop_
 _atom_type_symbol
 Ni
 Ce
 Ge
loop_
 _atom_site_label
 _atom_site_type_symbol
 _atom_site_symmetry_multiplicity
 _atom_site_Wyckoff_symbol
 _atom_site_fract_x
 _atom_site_fract_y
 _atom_site_fract_z
 _atom_site_occupancy
 Ni1 Ni 4 i 0.0594 0 0.4752 1
 Ce1 Ce 4 i 0.0957 0 0.284 1
 Ce2 Ce 4 i 0.1422 0 0.8494 1
 Ce3 Ce 4 i 0.216 0 0.5999 1
 Ni2 Ni 4 i 0.2477 0 0.0503 1
 Ge1 Ge 4 i 0.2614 0 0.2345 1
 Ge2 Ge 4 i 0.3713 0 0.549 1
 Ce4 Ce 4 i 0.4515 0 0.3738 1
 Ge3 Ge 4 i 0.4864 0 0.1512 1
 Ce5 Ce 4 i 0.6601 0 0.0935 1
 Ce6 Ce 2 a 0 0 0 1


_exptl_crystal_colour                    ?
_exptl_crystal_density_meas              ?
_exptl_crystal_density_diffrn            6.98
_cell_measurement_temperature            ?
_cell_measurement_radiation              'X-rays, Cu Ka'
_cell_measurement_reflns_used            ?
_diffrn_ambient_temperature              ?
_diffrn_measurement_device               'automatic diffractometer'
_diffrn_measurement_device_type          ?
_diffrn_radiation_type                   ?
_diffrn_reflns_number                    ?
_exptl_absorpt_coefficient_mu            ?
_exptl_absorpt_correction_type           ?
_computing_structure_solution            ?
_refine_ls_number_parameters             ?
_refine_ls_number_reflns                 ?
_refine_ls_R_factor_gt                   ?
_refine_ls_wR_factor_gt                  ?

# End of data set 1008249


