##############################################################################
#                                                                            #
# Ce-H-O-S         # Ce2[SO4]3[H2O]9                               #  557430 #
#                                                                            #
##############################################################################
#                                                                            #
#                           Pearson's Crystal Data                           #
#      Crystal Structure Database for Inorganic Compounds (on DVD)           #
#                              Release 2017/18                               #
#                  Editors: Pierre Villars and Karin Cenzual                 #
#                                                                            #
#   Copyright (c) ASM International & Material Phases Data System (MPDS),    #
# Switzerland & National Institute for Materials Science (NIMS), Japan, 2017 #
#                   All rights reserved. Version 2017.08                     #
#                                                                            #
#   This copy of Pearson's Crystal Data is licensed to:                      #
#   University of Alberta, Chemistry Department, 1-5 Installations License         #
#                                                                            #
##############################################################################

data_557430
_audit_creation_date                     2017-12-04
_audit_creation_method
;
Pearson's Crystal Data browser
;
#_database_code_PCD                      557430

# Entry summary

_chemical_formula_structural             'Ce~2~ [S O~4~]~3~ [H~2~ O]~9~'
_chemical_formula_sum                    'Ce2 H18 O21 S3'
_chemical_name_mineral                   ?
_chemical_compound_source                ?
_chemical_name_structure_type            La~2~[SO~4~]~3~[H~2~O]~9~,hP52,176
_chemical_formula_weight                 730.5

# Bibliographic data

_publ_section_title
;
Analyse radiocristallographique des sulfates de c\'erium enn\'eahydrat\'e: Ce~2~(SO~4~)~3~.9H~2~O, et octohydrat\'e: Ce~2~(SO~4~)~3~.8H~2~O
;
_journal_coden_ASTM                      BSCFAS
_journal_name_full                       'Bull. Soc. Chim. Fr.'
_journal_year                            1965
_journal_volume                          ?
_journal_page_first                      102
_journal_page_last                       108
_journal_language                        French
loop_
 _publ_author_name
 _publ_author_address
'Pannetier G.'
;
Paris University
Laboratoire de Chimie
Paris
France
;
'Dereigne A.'
;
Paris VI Pierre et Marie Curie University
Laboratoire de Chimie
Paris
France
;

# Standardized crystallographic data

_cell_length_a                           11.081
_cell_length_b                           11.081
_cell_length_c                           8.084
_cell_angle_alpha                        90
_cell_angle_beta                         90
_cell_angle_gamma                        120
_cell_volume                             859.6
_cell_formula_units_Z                    2
_space_group_IT_number                   176
_space_group_name_H-M_alt                'P 63/m'
loop_
 _space_group_symop_id
 _space_group_symop_operation_xyz
 1 'x, y, z'
 2 '-x+y, -x, 1/2-z'
 3 '-x+y, -x, z'
 4 '-x, -y, -z'
 5 '-x, -y, 1/2+z'
 6 '-y, x-y, 1/2-z'
 7 '-y, x-y, z'
 8 'x, y, 1/2-z'
 9 'x-y, x, -z'
 10 'x-y, x, 1/2+z'
 11 'y, -x+y, -z'
 12 'y, -x+y, 1/2+z'

# Atomic positions taken from type-defining entry

loop_
 _atom_type_symbol
 O
 S
 Ce
loop_
 _atom_site_label
 _atom_site_type_symbol
 _atom_site_symmetry_multiplicity
 _atom_site_Wyckoff_symbol
 _atom_site_fract_x
 _atom_site_fract_y
 _atom_site_fract_z
 _atom_site_occupancy
 O1 O 12 i 0.2249 0.2595 0.0997 1
 O2 O 12 i 0.5375 0.157 0.0215 1
 O3 O 6 h 0.1023 0.4373 0.25 1
 O4 O 6 h 0.1674 0.0538 0.25 1
 S1 S 6 h 0.26096 0.20988 0.25 1
 O5 O 6 h 0.4064 0.244 0.25 1
 Ce1 Ce 2 d 0.666667 0.333333 0.25 1
 Ce2 Ce 2 b 0 0 0 1


_exptl_crystal_colour                    ?
_exptl_crystal_density_meas              2.83
_exptl_crystal_density_diffrn            2.82
_cell_measurement_temperature            ?
_cell_measurement_radiation              'X-rays, Cu Ka'
_cell_measurement_reflns_used            ?
_diffrn_ambient_temperature              ?
_diffrn_measurement_device               'automatic diffractometer'
_diffrn_measurement_device_type          ?
_diffrn_radiation_type                   ?
_diffrn_reflns_number                    ?
_exptl_absorpt_coefficient_mu            ?
_exptl_absorpt_correction_type           ?
_computing_structure_solution            ?
_refine_ls_number_parameters             ?
_refine_ls_number_reflns                 ?
_refine_ls_R_factor_gt                   ?
_refine_ls_wR_factor_gt                  ?

# Published diffraction lines

loop_
 _refln_index_h
 _refln_index_k
 _refln_index_l
 _refln_d_spacing
 _refln_intensity_meas
 1 0 0 96.04 55
 1 0 1 61.79 80
 1 1 0 55.07 95
 1 1 1 45.52 20
 2 0 1 41.06 7
 0 0 2 40.22 7
 1 0 2 37.04 30
 2 1 1 32.99 100
 3 0 0 31.83 30
 2 0 2 30.78 60
 3 0 1 29.51 5
 2 2 0 27.57 18
 2 1 2 26.85 75
 1 0 3 25.78 20
 3 1 1 25.14 5
 4 0 1 22.84 4
 3 1 2 22.1 60
 2 1 3 21.49 35
 3 2 1 21.11 25
 4 1 0 20.82 40
 4 0 2 20.49 15
 0 0 4 20.07 20
 2 2 3 19.2 35
 1 1 4 18.86 25
 4 0 3 17.8 6
 4 2 1 17.58 15
 5 0 2 17.22 7
 3 0 4 16.96 13
 5 1 1 16.76 5
 4 2 2 16.45 13
 2 2 4 16.21 12
 3 1 4 15.98 7
 5 1 2 15.74 13
 5 2 0 15.26 10
 4 2 3 14.95 8
 2 1 5 14.65 10
 4 1 4 14.43 13
 3 1 5 13.73 6
 6 0 3 13.65 5
 3 3 4 13.53 6
 0 0 6 13.41 5
 5 2 3 13.24 2
 6 2 1 13.04 1
 3 2 5 12.93 1
 5 3 2 12.88 6
 7 1 0 12.61 5
 2 1 6 12.53 8
 6 0 4 12.44 6
 5 3 3 12.13 4
 6 3 0 11.98 5
 5 4 2 11.7 4
 7 2 0 11.68 2
 8 0 2 11.44 4
 1 0 7 11.4 3
 8 1 2 10.73 7
 6 4 2 10.56 7
 9 0 1 10.53 2
 8 2 0 10.37 1
 9 0 2 10.29 4
 6 4 3 10.16 2

# End of data set 557430


