##############################################################################
#                                                                            #
# B-Ce-Ni          # Ce2Ni5B4                                      #  461369 #
#                                                                            #
##############################################################################
#                                                                            #
#                           Pearson's Crystal Data                           #
#      Crystal Structure Database for Inorganic Compounds (on DVD)           #
#                              Release 2017/18                               #
#                  Editors: Pierre Villars and Karin Cenzual                 #
#                                                                            #
#   Copyright (c) ASM International & Material Phases Data System (MPDS),    #
# Switzerland & National Institute for Materials Science (NIMS), Japan, 2017 #
#                   All rights reserved. Version 2017.08                     #
#                                                                            #
#   This copy of Pearson's Crystal Data is licensed to:                      #
#   University of Alberta, Chemistry Department, 1-5 Installations License         #
#                                                                            #
##############################################################################

data_461369
_audit_creation_date                     2017-12-01
_audit_creation_method
;
Pearson's Crystal Data browser
;
#_database_code_PCD                      461369

# Entry summary

_chemical_formula_structural             'Ce~2~ Ni~5~ B~4~'
_chemical_formula_sum                    'B4 Ce2 Ni5'
_chemical_name_mineral                   ?
_chemical_compound_source                ?
_chemical_name_structure_type            Nd~2~Ni~5~B~4~,mS22,12
_chemical_formula_weight                 617.0

# Bibliographic data

_publ_section_title
'New borides of structural type Nd~2~Ni~5~B~4~'                               
_journal_coden_ASTM                      INOMAF
_journal_name_full                       'Inorg. Mater.'
_journal_year                            1986
_journal_volume                          22
_journal_page_first                      1683
_journal_page_last                       1685
_journal_language                        English
loop_
 _publ_author_name
 _publ_author_address
'Kuz'ma Y.B.'
;
Lviv Ivan Franko National University
Lviv
Ukraine
;

# Standardized crystallographic data

_cell_length_a                           9.759
_cell_length_b                           5.117
_cell_length_c                           6.7203
_cell_angle_alpha                        90
_cell_angle_beta                         125.22
_cell_angle_gamma                        90
_cell_volume                             274.2
_cell_formula_units_Z                    2
_space_group_IT_number                   12
_space_group_name_H-M_alt                'C 1 2/m 1'
loop_
 _space_group_symop_id
 _space_group_symop_operation_xyz
 1 'x, y, z'
 2 '-x, -y, -z'
 3 '-x, y, -z'
 4 'x, -y, z'
 5 '1/2+x, 1/2+y, z'
 6 '1/2-x, 1/2-y, -z'
 7 '1/2-x, 1/2+y, -z'
 8 '1/2+x, 1/2-y, z'

# Atomic positions taken from type-defining entry

loop_
 _atom_type_symbol
 Ni
 B
 Ce
loop_
 _atom_site_label
 _atom_site_type_symbol
 _atom_site_symmetry_multiplicity
 _atom_site_Wyckoff_symbol
 _atom_site_fract_x
 _atom_site_fract_y
 _atom_site_fract_z
 _atom_site_occupancy
 Ni1 Ni 8 j 0.0743 0.251 0.3707 1
 B1 B 4 i 0.222 0 0.341 1
 B2 B 4 i 0.402 0 0.361 1
 Ce1 Ce 4 i 0.7259 0 0.1487 1
 Ni2 Ni 2 a 0 0 0 1


_exptl_crystal_colour                    ?
_exptl_crystal_density_meas              ?
_exptl_crystal_density_diffrn            7.47
_cell_measurement_temperature            ?
_cell_measurement_radiation              'X-rays, Cr Ka'
_cell_measurement_reflns_used            ?
_diffrn_ambient_temperature              ?
_diffrn_measurement_device               'automatic diffractometer'
_diffrn_measurement_device_type          ?
_diffrn_radiation_type                   ?
_diffrn_reflns_number                    ?
_exptl_absorpt_coefficient_mu            ?
_exptl_absorpt_correction_type           ?
_computing_structure_solution            ?
_refine_ls_number_parameters             ?
_refine_ls_number_reflns                 ?
_refine_ls_R_factor_gt                   ?
_refine_ls_wR_factor_gt                  ?

# End of data set 461369


