##############################################################################
#                                                                            #
# B-Ce-Co          # Ce3Co11B4                                     #  301629 #
#                                                                            #
##############################################################################
#                                                                            #
#                           Pearson's Crystal Data                           #
#      Crystal Structure Database for Inorganic Compounds (on DVD)           #
#                              Release 2017/18                               #
#                  Editors: Pierre Villars and Karin Cenzual                 #
#                                                                            #
#   Copyright (c) ASM International & Material Phases Data System (MPDS),    #
# Switzerland & National Institute for Materials Science (NIMS), Japan, 2017 #
#                   All rights reserved. Version 2017.08                     #
#                                                                            #
#   This copy of Pearson's Crystal Data is licensed to:                      #
#   University of Alberta, Chemistry Department, 1-5 Installations License         #
#                                                                            #
##############################################################################

data_301629
_audit_creation_date                     2017-12-01
_audit_creation_method
;
Pearson's Crystal Data browser
;
#_database_code_PCD                      301629

# Entry summary

_chemical_formula_structural             'Ce~3~ Co~11~ B~4~'
_chemical_formula_sum                    'B4 Ce3 Co11'
_chemical_name_mineral                   ?
_chemical_compound_source                ?
_chemical_name_structure_type            Ce~3~Co~11~B~4~,hP18,191
_chemical_formula_weight                 1111.9

# Bibliographic data

_publ_section_title                      'The system cerium-cobalt-boron'
_journal_coden_ASTM                      INOMAF
_journal_name_full                       'Inorg. Mater.'
_journal_year                            1974
_journal_volume                          10
_journal_page_first                      227
_journal_page_last                       230
_journal_language                        English
loop_
 _publ_author_name
 _publ_author_address
'Bilonizhko N.S.'
;
Lviv Ivan Franko National University
Department of Analytical Chemistry
Lviv
Ukraine
;
'Kuz'ma Y.B.'
;
Lviv Ivan Franko National University
Lviv
Ukraine
;

# Standardized crystallographic data

_cell_length_a                           5.045
_cell_length_b                           5.045
_cell_length_c                           9.925
_cell_angle_alpha                        90
_cell_angle_beta                         90
_cell_angle_gamma                        120
_cell_volume                             218.8
_cell_formula_units_Z                    1
_space_group_IT_number                   191
_space_group_name_H-M_alt                'P 6/m m m'
loop_
 _space_group_symop_id
 _space_group_symop_operation_xyz
 1 'x, y, z'
 2 '-x+y, -x, -z'
 3 '-x+y, -x, z'
 4 '-x+y, y, -z'
 5 '-x+y, y, z'
 6 '-x, -x+y, -z'
 7 '-x, -x+y, z'
 8 '-x, -y, -z'
 9 '-x, -y, z'
 10 '-y, -x, -z'
 11 '-y, -x, z'
 12 '-y, x-y, -z'
 13 '-y, x-y, z'
 14 'x, x-y, -z'
 15 'x, x-y, z'
 16 'x, y, -z'
 17 'x-y, -y, -z'
 18 'x-y, -y, z'
 19 'x-y, x, -z'
 20 'x-y, x, z'
 21 'y, -x+y, -z'
 22 'y, -x+y, z'
 23 'y, x, -z'
 24 'y, x, z'
loop_
 _atom_type_symbol
 Co
 B
 Ce
loop_
 _atom_site_label
 _atom_site_type_symbol
 _atom_site_symmetry_multiplicity
 _atom_site_Wyckoff_symbol
 _atom_site_fract_x
 _atom_site_fract_y
 _atom_site_fract_z
 _atom_site_occupancy
 Co3 Co 6 i 0.5 0 0.2 1
 B B 4 h 0.333333 0.666667 0.35 1
 Co2 Co 3 g 0.5 0 0.5 1
 Ce2 Ce 2 e 0 0 0.333 1
 Co1 Co 2 c 0.333333 0.666667 0 1
 Ce1 Ce 1 a 0 0 0 1


_exptl_crystal_colour                    ?
_exptl_crystal_density_meas              ?
_exptl_crystal_density_diffrn            8.44
_cell_measurement_temperature            ?
_cell_measurement_radiation              'X-rays, Cu Ka'
_cell_measurement_reflns_used            ?
_diffrn_ambient_temperature              ?
_diffrn_measurement_device               film
_diffrn_measurement_device_type          ?
_diffrn_radiation_type                   'X-rays, Cu Ka'
_diffrn_reflns_number                    ?
_exptl_absorpt_coefficient_mu            ?
_exptl_absorpt_correction_type           ?
_computing_structure_solution            'starting values from the literature'
_refine_ls_number_parameters             ?
_refine_ls_number_reflns                 ?
_refine_ls_R_factor_gt                   ?
_refine_ls_wR_factor_gt                  ?
_pd_proc_ls_proof_R_factor               ?
_pd_proc_ls_proof_wR_factor              ?
_refine_ls_R_I_factor                    ?

# Published diffraction lines

loop_
 _refln_index_h
 _refln_index_k
 _refln_index_l
 _refln_d_spacing
 _refln_intensity_meas
 1 0 3 26.3 100
 1 1 0 25.1 30
 1 1 1 24.4 5
 1 1 2 22.6 5
 2 0 0 21.8 80
 1 0 4 21.5 5
 1 1 3 20 90
 2 0 3 18.21 5
 0 0 6 16.45 30
 2 1 3 14.79 40
 3 0 0 14.61 5
 1 1 6 13.78 30
 3 0 3 13.42 40
 2 0 6 13.15 50
 2 2 0 12.63 60
 1 1 7 12.32 10
 3 1 0 12.19 5
 2 0 7 11.87 50

# End of data set 301629


