##############################################################################
#                                                                            #
# Ce-Ni            # Ce7Ni3                                        #  451437 #
#                                                                            #
##############################################################################
#                                                                            #
#                           Pearson's Crystal Data                           #
#      Crystal Structure Database for Inorganic Compounds (on DVD)           #
#                              Release 2017/18                               #
#                  Editors: Pierre Villars and Karin Cenzual                 #
#                                                                            #
#   Copyright (c) ASM International & Material Phases Data System (MPDS),    #
# Switzerland & National Institute for Materials Science (NIMS), Japan, 2017 #
#                   All rights reserved. Version 2017.08                     #
#                                                                            #
#   This copy of Pearson's Crystal Data is licensed to:                      #
#   University of Alberta, Chemistry Department, 1-5 Installations License         #
#                                                                            #
##############################################################################

data_451437
_audit_creation_date                     2017-12-01
_audit_creation_method
;
Pearson's Crystal Data browser
;
#_database_code_PCD                      451437

# Entry summary

_chemical_formula_structural             'Ce~7~ Ni~3~'
_chemical_formula_sum                    'Ce7 Ni3'
_chemical_name_mineral                   ?
_chemical_compound_source                ?
_chemical_name_structure_type            Th~7~Fe~3~,hP20,186
_chemical_formula_weight                 1156.9

# Bibliographic data

_publ_section_title                      'The crystal structure of Ce~7~Ni~3~'
_journal_coden_ASTM                      ACCRA9
_journal_name_full                       'Acta Crystallogr.'
_journal_year                            1961
_journal_volume                          14
_journal_page_first                      1084
_journal_page_last                       1087
_journal_language                        English
loop_
 _publ_author_name
 _publ_author_address
'Roof R.B. Jr.'
;
New Mexico Los Alamos University
Los Alamos National Laboratory
Los Alamos
U.S.A. New Mexico
;
'Larson A.C.'
;
New Mexico Los Alamos University
Los Alamos National Laboratory
Los Alamos
U.S.A. New Mexico
;
'Cromer D.T.'
;
New Mexico Los Alamos University
Los Alamos National Laboratory
Los Alamos
U.S.A. New Mexico
;

# Standardized crystallographic data

_cell_length_a                           9.92
_cell_length_b                           9.92
_cell_length_c                           6.33
_cell_angle_alpha                        90
_cell_angle_beta                         90
_cell_angle_gamma                        120
_cell_volume                             539.46
_cell_formula_units_Z                    2
_space_group_IT_number                   186
_space_group_name_H-M_alt                'P 63 m c'
loop_
 _space_group_symop_id
 _space_group_symop_operation_xyz
 1 'x, y, z'
 2 '-x+y, -x, z'
 3 '-x+y, y, z'
 4 '-x, -x+y, 1/2+z'
 5 '-x, -y, 1/2+z'
 6 '-y, -x, z'
 7 '-y, x-y, z'
 8 'x, x-y, z'
 9 'x-y, -y, 1/2+z'
 10 'x-y, x, 1/2+z'
 11 'y, -x+y, 1/2+z'
 12 'y, x, 1/2+z'
loop_
 _atom_type_symbol
 Ni
 Ce
loop_
 _atom_site_label
 _atom_site_type_symbol
 _atom_site_symmetry_multiplicity
 _atom_site_Wyckoff_symbol
 _atom_site_fract_x
 _atom_site_fract_y
 _atom_site_fract_z
 _atom_site_occupancy
 Ni Ni 6 c 0.1882 0.8118 0.2392 1
 Ce3 Ce 6 c 0.5391 0.4609 -0.0123 1
 Ce2 Ce 6 c 0.875 0.125 0.2888 1
 Ce1 Ce 2 b 0.333333 0.666667 0.0 1


_exptl_crystal_colour                    ?
_exptl_crystal_density_meas              7.12
_exptl_crystal_density_diffrn            7.12
_cell_measurement_temperature            ?
_cell_measurement_radiation              'X-rays, Mo Ka'
_cell_measurement_wavelength             0.7107
_cell_measurement_reflns_used            ?
_diffrn_ambient_temperature              ?
_diffrn_measurement_device               'precession photographs'
_diffrn_measurement_device_type          ?
_diffrn_radiation_type                   'X-rays, Mo Ka'
_diffrn_radiation_wavelength             0.7107
_diffrn_reflns_number                    ?
_exptl_absorpt_coefficient_mu            ?
_exptl_absorpt_correction_type           no
_computing_structure_solution            'Patterson synthesis'
_refine_ls_number_parameters             ?
_refine_ls_number_reflns                 ?
_refine_ls_R_factor_gt                   0.091
_refine_ls_wR_factor_gt                  ?

# End of data set 451437


