##############################################################################
#                                                                            #
# As-Ce            # CeAs2                                         #  251291 #
#                                                                            #
##############################################################################
#                                                                            #
#                           Pearson's Crystal Data                           #
#      Crystal Structure Database for Inorganic Compounds (on DVD)           #
#                              Release 2017/18                               #
#                  Editors: Pierre Villars and Karin Cenzual                 #
#                                                                            #
#   Copyright (c) ASM International & Material Phases Data System (MPDS),    #
# Switzerland & National Institute for Materials Science (NIMS), Japan, 2017 #
#                   All rights reserved. Version 2017.08                     #
#                                                                            #
#   This copy of Pearson's Crystal Data is licensed to:                      #
#   University of Alberta, Chemistry Department, 1-5 Installations License         #
#                                                                            #
##############################################################################

data_251291
_audit_creation_date                     2017-12-01
_audit_creation_method
;
Pearson's Crystal Data browser
;
#_database_code_PCD                      251291

# Entry summary

_chemical_formula_structural             'Ce As~2~'
_chemical_formula_sum                    'As2 Ce'
_chemical_name_mineral                   ?
_chemical_compound_source                ?
_chemical_name_structure_type            NdAs~2~,mP12,14
_chemical_formula_weight                 290.0

# Bibliographic data

_publ_section_title                      'Rare-earth arsenides'
_journal_coden_ASTM                      JCOMAH
_journal_name_full                       'J. Less-Common Met.'
_journal_year                            1970
_journal_volume                          22
_journal_page_first                      51
_journal_page_last                       59
_journal_language                        English
loop_
 _publ_author_name
 _publ_author_address
'Ono S.'
;
National Research Council of Canada (NRCC)
Division of Chemistry
Ottawa
Canada
;
'Despault G.J.G.'
;
National Research Council of Canada (NRCC)
Division of Chemistry
Ottawa
Canada
;
'Calvert L.D.'
;
National Research Council of Canada (NRCC)
Division of Chemistry
Ottawa
Canada
;
'Taylor J.B.'
;
National Research Council of Canada (NRCC)
Division of Chemistry
Ottawa
Canada
;

# Standardized crystallographic data

_cell_length_a                           4.165
_cell_length_b                           6.871
_cell_length_c                           10.561
_cell_angle_alpha                        90
_cell_angle_beta                         106.72
_cell_angle_gamma                        90
_cell_volume                             289.45
_cell_formula_units_Z                    4
_space_group_IT_number                   14
_space_group_name_H-M_alt                'P 1 21/c 1'
loop_
 _space_group_symop_id
 _space_group_symop_operation_xyz
 1 'x, y, z'
 2 '-x, -y, -z'
 3 '-x, 1/2+y, 1/2-z'
 4 'x, 1/2-y, 1/2+z'

# Atomic positions taken from type-defining entry

loop_
 _atom_type_symbol
 As
 Ce
loop_
 _atom_site_label
 _atom_site_type_symbol
 _atom_site_symmetry_multiplicity
 _atom_site_Wyckoff_symbol
 _atom_site_fract_x
 _atom_site_fract_y
 _atom_site_fract_z
 _atom_site_occupancy
 As1 As 4 e 0.0390 0.3564 0.3292 1
 As2 As 4 e 0.2273 0.6223 0.0497 1
 Ce1 Ce 4 e 0.4124 0.1874 0.1402 1


_exptl_crystal_colour                    ?
_exptl_crystal_density_meas              6.54
_exptl_crystal_density_diffrn            6.65
_cell_measurement_temperature            ?
_cell_measurement_radiation              'X-rays, Cu Ka1'
_cell_measurement_wavelength             1.5405
_pd_proc_wavelength                      1.5405
_cell_measurement_reflns_used            ?
_diffrn_ambient_temperature              ?
_diffrn_measurement_device               'Guinier film'
_diffrn_measurement_device_type          ?
_diffrn_radiation_type                   ?
_diffrn_reflns_number                    ?
_exptl_absorpt_coefficient_mu            ?
_exptl_absorpt_correction_type           ?
_computing_structure_solution            ?
_refine_ls_number_parameters             ?
_refine_ls_number_reflns                 ?
_refine_ls_R_factor_gt                   ?
_refine_ls_wR_factor_gt                  ?

# End of data set 251291


