##############################################################################
#                                                                            #
# As-Ce-S          # CeAsS                                         #  460736 #
#                                                                            #
##############################################################################
#                                                                            #
#                           Pearson's Crystal Data                           #
#      Crystal Structure Database for Inorganic Compounds (on DVD)           #
#                              Release 2017/18                               #
#                  Editors: Pierre Villars and Karin Cenzual                 #
#                                                                            #
#   Copyright (c) ASM International & Material Phases Data System (MPDS),    #
# Switzerland & National Institute for Materials Science (NIMS), Japan, 2017 #
#                   All rights reserved. Version 2017.08                     #
#                                                                            #
#   This copy of Pearson's Crystal Data is licensed to:                      #
#   University of Alberta, Chemistry Department, 1-5 Installations License         #
#                                                                            #
##############################################################################

data_460736
_audit_creation_date                     2017-12-01
_audit_creation_method
;
Pearson's Crystal Data browser
;
#_database_code_PCD                      460736

# Entry summary

_chemical_formula_structural             'Ce As S'
_chemical_formula_sum                    'As Ce S'
_chemical_name_mineral                   ?
_chemical_compound_source                ?
_chemical_name_structure_type            CeAsS,mP12,14
_chemical_formula_weight                 247.1

# Bibliographic data

_publ_section_title
;
Le sulfoars\'eniure de c\'erium CeAsS et ses homologues avec les lanthanides et l'yttrium
;
_journal_coden_ASTM                      JCOMAH
_journal_name_full                       'J. Less-Common Met.'
_journal_year                            1977
_journal_volume                          53
_journal_page_first                      137
_journal_page_last                       140
_journal_language                        French
loop_
 _publ_author_name
 _publ_author_address
'C\'eolin R.'
;
Chatenay-Malabry Paris Sud XI University
Laboratoire de Chimie Min\'erale
Chatenay-Malabry
France
;
'Rodier N.'
;
Chatenay-Malabry Paris Sud XI University
Laboratoire de Chimie Min\'erale
Chatenay-Malabry
France
;
'Khodadad P.'
;
Chatenay-Malabry Paris Sud XI University
Laboratoire de Chimie Min\'erale
Chatenay-Malabry
France
;

# Standardized crystallographic data

_cell_length_a                           3.9118
_cell_length_b                           17.45
_cell_length_c                           5.616
_cell_angle_alpha                        90
_cell_angle_beta                         133.895
_cell_angle_gamma                        90
_cell_volume                             276.2
_cell_formula_units_Z                    4
_space_group_IT_number                   14
_space_group_name_H-M_alt                'P 1 21/c 1'
loop_
 _space_group_symop_id
 _space_group_symop_operation_xyz
 1 'x, y, z'
 2 '-x, -y, -z'
 3 '-x, 1/2+y, 1/2-z'
 4 'x, 1/2-y, 1/2+z'

# Atomic positions taken from type-defining entry

loop_
 _atom_type_symbol
 Ce
 S
 As
loop_
 _atom_site_label
 _atom_site_type_symbol
 _atom_site_symmetry_multiplicity
 _atom_site_Wyckoff_symbol
 _atom_site_fract_x
 _atom_site_fract_y
 _atom_site_fract_z
 _atom_site_occupancy
 Ce1 Ce 4 e 0.0216 0.3544 0.2718 1
 S1 S 4 e 0.0224 0.1859 0.2714 1
 As1 As 4 e 0.543 0.0019 0.297 1


_exptl_crystal_colour                    ?
_exptl_crystal_density_meas              ?
_exptl_crystal_density_diffrn            5.94
_cell_measurement_temperature            ?
_cell_measurement_radiation              X-rays
_cell_measurement_reflns_used            ?
_diffrn_ambient_temperature              ?
_diffrn_measurement_device               'Debye-Scherrer film'
_diffrn_measurement_device_type          ?
_diffrn_radiation_type                   ?
_diffrn_reflns_number                    ?
_exptl_absorpt_coefficient_mu            ?
_exptl_absorpt_correction_type           ?
_computing_structure_solution            ?
_refine_ls_number_parameters             ?
_refine_ls_number_reflns                 ?
_refine_ls_R_factor_gt                   ?
_refine_ls_wR_factor_gt                  ?

# Published diffraction lines

loop_
 _refln_index_h
 _refln_index_k
 _refln_index_l
 _refln_d_spacing
 _refln_intensity_meas
 0 0 4 43.77 1
 1 1 2 36.45 49
 0 1 2 35.8 49
 1 1 4 30.71 1
 0 1 4 29.14 35
 1 0 1 28.07 17
 1 2 1 27.41 1
 1 2 2 26.72 46
 1 0 4 24.1 34
 1 1 6 23.62 100
 0 1 6 23.4 17
 1 0 6 20.6 5
 2 2 1 20.07 6
 0 2 0 19.63 23
 1 1 2 17.51 23
 1 2 8 17.25 10

# End of data set 460736


