##############################################################################
#                                                                            #
# B-Ce-Co          # CeCo3B2                                       # 1000463 #
#                                                                            #
##############################################################################
#                                                                            #
#                           Pearson's Crystal Data                           #
#      Crystal Structure Database for Inorganic Compounds (on DVD)           #
#                              Release 2017/18                               #
#                  Editors: Pierre Villars and Karin Cenzual                 #
#                                                                            #
#   Copyright (c) ASM International & Material Phases Data System (MPDS),    #
# Switzerland & National Institute for Materials Science (NIMS), Japan, 2017 #
#                   All rights reserved. Version 2017.08                     #
#                                                                            #
#   This copy of Pearson's Crystal Data is licensed to:                      #
#   University of Alberta, Chemistry Department, 1-5 Installations License         #
#                                                                            #
##############################################################################

data_1000463
_audit_creation_date                     2017-12-04
_audit_creation_method
;
Pearson's Crystal Data browser
;
#_database_code_PCD                      1000463

# Entry summary

_chemical_formula_structural             'Ce Co~3~ B~2~'
_chemical_formula_sum                    'B2 Ce Co3'
_chemical_name_mineral                   ?
_chemical_compound_source                ?
_chemical_name_structure_type            CeCo~3~B~2~,hP6,191
_chemical_formula_weight                 338.5

# Bibliographic data

_publ_section_title
'Crystal structure of CeCo~3~B~3~ and analogous compounds'                    
_journal_coden_ASTM                      DUKABM
_journal_name_full                       'Dopov. Akad. Nauk Ukr. RSR, Ser. A'
_journal_year                            1969
_journal_volume                          ?
_journal_page_first                      939
_journal_page_last                       941
_journal_language                        Ukrainian
loop_
 _publ_author_name
 _publ_author_address
'Kuz'ma Y.B.'
;
Lviv Ivan Franko National University
Lviv
Ukraine
;
'Krypyakevych P.I.'
;
Lviv Ivan Franko National University
Department of Inorganic Chemistry
Lviv
Ukraine
;
'Bilonizhko N.S.'
;
Lviv Ivan Franko National University
Lviv
Ukraine
;

# Standardized crystallographic data

_cell_length_a                           5.057
_cell_length_b                           5.057
_cell_length_c                           3.036
_cell_angle_alpha                        90
_cell_angle_beta                         90
_cell_angle_gamma                        120
_cell_volume                             67.2
_cell_formula_units_Z                    1
_space_group_IT_number                   191
_space_group_name_H-M_alt                'P 6/m m m'
loop_
 _space_group_symop_id
 _space_group_symop_operation_xyz
 1 'x, y, z'
 2 '-x+y, -x, -z'
 3 '-x+y, -x, z'
 4 '-x+y, y, -z'
 5 '-x+y, y, z'
 6 '-x, -x+y, -z'
 7 '-x, -x+y, z'
 8 '-x, -y, -z'
 9 '-x, -y, z'
 10 '-y, -x, -z'
 11 '-y, -x, z'
 12 '-y, x-y, -z'
 13 '-y, x-y, z'
 14 'x, x-y, -z'
 15 'x, x-y, z'
 16 'x, y, -z'
 17 'x-y, -y, -z'
 18 'x-y, -y, z'
 19 'x-y, x, -z'
 20 'x-y, x, z'
 21 'y, -x+y, -z'
 22 'y, -x+y, z'
 23 'y, x, -z'
 24 'y, x, z'
loop_
 _atom_type_symbol
 Co
 B
 Ce
loop_
 _atom_site_label
 _atom_site_type_symbol
 _atom_site_symmetry_multiplicity
 _atom_site_Wyckoff_symbol
 _atom_site_fract_x
 _atom_site_fract_y
 _atom_site_fract_z
 _atom_site_occupancy
 Co Co 3 g 0.5 0 0.5 1
 B B 2 c 0.333333 0.666667 0 1
 Ce Ce 1 a 0 0 0 1


_exptl_crystal_colour                    ?
_exptl_crystal_density_meas              8.24
_exptl_crystal_density_diffrn            8.36
_cell_measurement_temperature            ?
_cell_measurement_radiation              X-rays
_cell_measurement_reflns_used            ?
_diffrn_ambient_temperature              ?
_diffrn_measurement_device               photographs
_diffrn_measurement_device_type          KFOR
_diffrn_radiation_type                   X-rays
_diffrn_reflns_number                    ?
_exptl_absorpt_coefficient_mu            ?
_exptl_absorpt_correction_type           ?
_computing_structure_solution            'Patterson synthesis'
_refine_ls_number_parameters             ?
_refine_ls_number_reflns                 43
_refine_ls_R_factor_gt                   ?
_refine_ls_wR_factor_gt                  ?

# End of data set 1000463


