##############################################################################
#                                                                            #
# B-Ce-Ir          # CeIr3B2 ht                                    #  300211 #
#                                                                            #
##############################################################################
#                                                                            #
#                           Pearson's Crystal Data                           #
#      Crystal Structure Database for Inorganic Compounds (on DVD)           #
#                              Release 2017/18                               #
#                  Editors: Pierre Villars and Karin Cenzual                 #
#                                                                            #
#   Copyright (c) ASM International & Material Phases Data System (MPDS),    #
# Switzerland & National Institute for Materials Science (NIMS), Japan, 2017 #
#                   All rights reserved. Version 2017.08                     #
#                                                                            #
#   This copy of Pearson's Crystal Data is licensed to:                      #
#   University of Alberta, Chemistry Department, 1-5 Installations License         #
#                                                                            #
##############################################################################

data_300211
_audit_creation_date                     2017-12-01
_audit_creation_method
;
Pearson's Crystal Data browser
;
#_database_code_PCD                      300211

# Entry summary

_chemical_formula_structural             'Ce Ir~3~ B~2~'
_chemical_formula_sum                    'B2 Ce Ir3'
_chemical_name_mineral                   ?
_chemical_compound_source                ?
_chemical_name_structure_type            ErIr~3~B~2~,mS12,12
_chemical_formula_weight                 738.4

# Bibliographic data

_publ_section_title
'Crystal structure and physical properties of new ternary rare earth borides' 
_journal_coden_ASTM                      JCOMAH
_journal_name_full                       'J. Less-Common Met.'
_journal_year                            1981
_journal_volume                          78
_journal_page_first                      99
_journal_page_last                       107
_journal_language                        English
loop_
 _publ_author_name
 _publ_author_address
'Ku H.C.'
;
California La Jolla San Diego University
Institute for Pure and Applied Physical Sciences
La Jolla
U.S.A. California
;
'Meisner G.P.'
;
California La Jolla San Diego University
Institute for Pure and Applied Physical Sciences
La Jolla
U.S.A. California
;

# Standardized crystallographic data

_cell_length_a                           5.502
_cell_length_b                           9.526
_cell_length_c                           3.09
_cell_angle_alpha                        90
_cell_angle_beta                         90.8
_cell_angle_gamma                        90
_cell_volume                             161.9
_cell_formula_units_Z                    2
_space_group_IT_number                   12
_space_group_name_H-M_alt                'C 1 2/m 1'
loop_
 _space_group_symop_id
 _space_group_symop_operation_xyz
 1 'x, y, z'
 2 '-x, -y, -z'
 3 '-x, y, -z'
 4 'x, -y, z'
 5 '1/2+x, 1/2+y, z'
 6 '1/2-x, 1/2-y, -z'
 7 '1/2-x, 1/2+y, -z'
 8 '1/2+x, 1/2-y, z'

# Atomic positions taken from type-defining entry

loop_
 _atom_type_symbol
 B
 Ir
 Ce
loop_
 _atom_site_label
 _atom_site_type_symbol
 _atom_site_symmetry_multiplicity
 _atom_site_Wyckoff_symbol
 _atom_site_fract_x
 _atom_site_fract_y
 _atom_site_fract_z
 _atom_site_occupancy
 B1 B 4 h 0 0.167 0.5 1
 Ir1 Ir 4 e 0.25 0.25 0 1
 Ce1 Ce 2 d 0 0.5 0.5 1
 Ir2 Ir 2 a 0 0 0 1


_exptl_crystal_colour                    ?
_exptl_crystal_density_meas              ?
_exptl_crystal_density_diffrn            15.14
_cell_measurement_temperature            ?
_cell_measurement_radiation              'X-rays, Cu Ka'
_cell_measurement_reflns_used            ?
_diffrn_ambient_temperature              ?
_diffrn_measurement_device               'automatic diffractometer'
_diffrn_measurement_device_type          ?
_diffrn_radiation_type                   ?
_diffrn_reflns_number                    ?
_exptl_absorpt_coefficient_mu            ?
_exptl_absorpt_correction_type           ?
_computing_structure_solution            ?
_refine_ls_number_parameters             ?
_refine_ls_number_reflns                 ?
_refine_ls_R_factor_gt                   ?
_refine_ls_wR_factor_gt                  ?

# End of data set 300211


