##############################################################################
#                                                                            #
# Ce-Ni            # CeNi5                                         #  261134 #
#                                                                            #
##############################################################################
#                                                                            #
#                           Pearson's Crystal Data                           #
#      Crystal Structure Database for Inorganic Compounds (on DVD)           #
#                              Release 2017/18                               #
#                  Editors: Pierre Villars and Karin Cenzual                 #
#                                                                            #
#   Copyright (c) ASM International & Material Phases Data System (MPDS),    #
# Switzerland & National Institute for Materials Science (NIMS), Japan, 2017 #
#                   All rights reserved. Version 2017.08                     #
#                                                                            #
#   This copy of Pearson's Crystal Data is licensed to:                      #
#   University of Alberta, Chemistry Department, 1-5 Installations License         #
#                                                                            #
##############################################################################

data_261134
_audit_creation_date                     2017-12-01
_audit_creation_method
;
Pearson's Crystal Data browser
;
#_database_code_PCD                      261134

# Entry summary

_chemical_formula_structural             'Ce Ni~5~'
_chemical_formula_sum                    'Ce Ni5'
_chemical_name_mineral                   ?
_chemical_compound_source                ?
_chemical_name_structure_type            CaCu~5~,hP6,191
_chemical_formula_weight                 433.6

# Bibliographic data

_publ_section_title
;
Die Kristallstrukturen von Ni~5~Ce, Ni~5~La, Ni~5~Ca, Cu~5~La, Cu~5~Ca, Zn~5~La, Zn~5~Ca, Ni~2~Ce, MgCe, MgLa und MgSr
;
_journal_coden_ASTM                      ZEMTAE
_journal_name_full                       'Z. Metallkd.'
_journal_year                            1942
_journal_volume                          34
_journal_page_first                      247
_journal_page_last                       253
_journal_language                        German
loop_
 _publ_author_name
 _publ_author_address
'Nowotny H.'
;
Stuttgart Technical University
Kaiser-Wilhelm Institut f\"ur Metallforschung
Stuttgart
Germany
;

# Standardized crystallographic data

_cell_length_a                           4.864
_cell_length_b                           4.864
_cell_length_c                           3.996
_cell_angle_alpha                        90
_cell_angle_beta                         90
_cell_angle_gamma                        120
_cell_volume                             81.87
_cell_formula_units_Z                    1
_space_group_IT_number                   191
_space_group_name_H-M_alt                'P 6/m m m'
loop_
 _space_group_symop_id
 _space_group_symop_operation_xyz
 1 'x, y, z'
 2 '-x+y, -x, -z'
 3 '-x+y, -x, z'
 4 '-x+y, y, -z'
 5 '-x+y, y, z'
 6 '-x, -x+y, -z'
 7 '-x, -x+y, z'
 8 '-x, -y, -z'
 9 '-x, -y, z'
 10 '-y, -x, -z'
 11 '-y, -x, z'
 12 '-y, x-y, -z'
 13 '-y, x-y, z'
 14 'x, x-y, -z'
 15 'x, x-y, z'
 16 'x, y, -z'
 17 'x-y, -y, -z'
 18 'x-y, -y, z'
 19 'x-y, x, -z'
 20 'x-y, x, z'
 21 'y, -x+y, -z'
 22 'y, -x+y, z'
 23 'y, x, -z'
 24 'y, x, z'
loop_
 _atom_type_symbol
 Ni
 Ce
loop_
 _atom_site_label
 _atom_site_type_symbol
 _atom_site_symmetry_multiplicity
 _atom_site_Wyckoff_symbol
 _atom_site_fract_x
 _atom_site_fract_y
 _atom_site_fract_z
 _atom_site_occupancy
 Ni2 Ni 3 g 0.5 0 0.5 1
 Ni1 Ni 2 c 0.333333 0.666667 0 1
 Ce Ce 1 a 0 0 0 1


_exptl_crystal_colour                    ?
_exptl_crystal_density_meas              ?
_exptl_crystal_density_diffrn            8.79
_cell_measurement_temperature            ?
_cell_measurement_radiation              'X-rays, Co Ka'
_cell_measurement_reflns_used            ?
_diffrn_ambient_temperature              ?
_diffrn_measurement_device               ?
_diffrn_measurement_device_type          ?
_diffrn_radiation_type                   ?
_diffrn_reflns_number                    ?
_exptl_absorpt_coefficient_mu            ?
_exptl_absorpt_correction_type           ?
_computing_structure_solution            ?
_refine_ls_number_parameters             ?
_refine_ls_number_reflns                 ?
_refine_ls_R_factor_gt                   ?
_refine_ls_wR_factor_gt                  ?

# Published diffraction lines

loop_
 _refln_index_h
 _refln_index_k
 _refln_index_l
 _refln_d_spacing
 _refln_intensity_meas
 0 0 1 0.506 1
 1 0 1 0.965 4
 1 1 0 1.352 3
 2 0 0 1.853 7
 0 0 2 2.019 3
 2 0 1 2.306 1
 1 1 2 3.347 2.5
 2 1 1 3.655 2
 2 0 2 3.807 3
 3 0 0 4.003 1
 0 0 3 4.538 3
 1 0 3 4.956 1
 2 2 0 5.378 2.5
 3 1 0 5.86 3
 2 0 3 6.328 2
 2 2 2 7.358 3

# End of data set 261134


