##############################################################################
#                                                                            #
# Ce-Ni-Sn         # CeNi2Sn2 rt                                   #  381126 #
#                                                                            #
##############################################################################
#                                                                            #
#                           Pearson's Crystal Data                           #
#      Crystal Structure Database for Inorganic Compounds (on DVD)           #
#                              Release 2017/18                               #
#                  Editors: Pierre Villars and Karin Cenzual                 #
#                                                                            #
#   Copyright (c) ASM International & Material Phases Data System (MPDS),    #
# Switzerland & National Institute for Materials Science (NIMS), Japan, 2017 #
#                   All rights reserved. Version 2017.08                     #
#                                                                            #
#   This copy of Pearson's Crystal Data is licensed to:                      #
#   University of Alberta, Chemistry Department, 1-5 Installations License         #
#                                                                            #
##############################################################################

data_381126
_audit_creation_date                     2017-12-01
_audit_creation_method
;
Pearson's Crystal Data browser
;
#_database_code_PCD                      381126

# Entry summary

_chemical_formula_structural             'Ce Ni~2~ Sn~2~'
_chemical_formula_sum                    'Ce Ni2 Sn2'
_chemical_name_mineral                   ?
_chemical_compound_source                ?
_chemical_name_structure_type            LaPt~2~Ge~2~,mP10,4
_chemical_formula_weight                 494.9

# Bibliographic data

_publ_section_title
'Structural properties of CeNi~2~Sn~2~'                                       
_journal_coden_ASTM                      JMMMDC
_journal_name_full                       'J. Magn. Magn. Mater.'
_journal_year                            1995
_journal_volume                          140/144
_journal_page_first                      893
_journal_page_last                       894
_journal_language                        English
loop_
 _publ_author_name
 _publ_author_address
'Slebarski A.'
;
Katowice Silesian University of Technology
Institute of Physics
Katowice
Poland
;
'Pierre J.'
;
Centre National de la Recherche Scientifique (CNRS)
Laboratoire Louis N\'eel
Grenoble
France
;
'Kaczmarska K.'
;
Katowice Silesian University of Technology
Institute of Physics
Katowice
Poland
;

# Standardized crystallographic data

_cell_length_a                           4.467
_cell_length_b                           4.48
_cell_length_c                           10.255
_cell_angle_alpha                        90
_cell_angle_beta                         90.33
_cell_angle_gamma                        90
_cell_volume                             205.2
_cell_formula_units_Z                    2
_space_group_IT_number                   4
_space_group_name_H-M_alt                'P 1 21 1'
loop_
 _space_group_symop_id
 _space_group_symop_operation_xyz
 1 'x, y, z'
 2 '-x, 1/2+y, -z'

# Atomic positions taken from type-defining entry

loop_
 _atom_type_symbol
 Ni
 Ce
 Sn
loop_
 _atom_site_label
 _atom_site_type_symbol
 _atom_site_symmetry_multiplicity
 _atom_site_Wyckoff_symbol
 _atom_site_fract_x
 _atom_site_fract_y
 _atom_site_fract_z
 _atom_site_occupancy
 Ni1 Ni 2 a 0.2559 0.0483 0.379 1
 Ce1 Ce 2 a 0.2631 0.0151 0.7449 1
 Sn1 Sn 2 a 0.2647 0.0 0.1267 1
 Ni2 Ni 2 a 0.268 0.465 0.0016 1
 Sn2 Sn 2 a 0.2727 0.5687 0.5049 1


_exptl_crystal_colour                    ?
_exptl_crystal_density_meas              ?
_exptl_crystal_density_diffrn            8.01
_cell_measurement_temperature            ?
_cell_measurement_radiation              'X-rays, Fe Ka1'
_cell_measurement_reflns_used            ?
_diffrn_ambient_temperature              ?
_diffrn_measurement_device               'automatic diffractometer'
_diffrn_measurement_device_type          ?
_diffrn_radiation_type                   ?
_diffrn_reflns_number                    ?
_exptl_absorpt_coefficient_mu            ?
_exptl_absorpt_correction_type           ?
_computing_structure_solution            ?
_refine_ls_number_parameters             ?
_refine_ls_number_reflns                 ?
_refine_ls_R_factor_gt                   ?
_refine_ls_wR_factor_gt                  ?

# End of data set 381126


