##############################################################################
#                                                                            #
# Ce-Ni            # CeNi3                                         #  526005 #
#                                                                            #
##############################################################################
#                                                                            #
#                           Pearson's Crystal Data                           #
#      Crystal Structure Database for Inorganic Compounds (on DVD)           #
#                              Release 2017/18                               #
#                  Editors: Pierre Villars and Karin Cenzual                 #
#                                                                            #
#   Copyright (c) ASM International & Material Phases Data System (MPDS),    #
# Switzerland & National Institute for Materials Science (NIMS), Japan, 2017 #
#                   All rights reserved. Version 2017.08                     #
#                                                                            #
#   This copy of Pearson's Crystal Data is licensed to:                      #
#   University of Alberta, Chemistry Department, 1-5 Installations License         #
#                                                                            #
##############################################################################

data_526005
_audit_creation_date                     2017-12-01
_audit_creation_method
;
Pearson's Crystal Data browser
;
#_database_code_PCD                      526005

# Entry summary

_chemical_formula_structural             'Ce Ni~3~'
_chemical_formula_sum                    'Ce Ni3'
_chemical_name_mineral                   ?
_chemical_compound_source                ?
_chemical_name_structure_type            CeNi~3~,hP24,194
_chemical_formula_weight                 316.2

# Bibliographic data

_publ_section_title
;
Structures cristallines de compos\'es interm\'etalliques entre le nickel et les m\'etaux de terres rares ou l'yttrium
;
_journal_coden_ASTM                      BUFCAE
_journal_name_full
'Bull. Soc. Fr. Mineral. Cristallogr.'                                        
_journal_year                            1969
_journal_volume                          92
_journal_page_first                      9
_journal_page_last                       16
_journal_language                        French
loop_
 _publ_author_name
 _publ_author_address
'Lemaire R.'
;
Grenoble Joseph Fourier Institute
Laboratoire d'Electrostatique et de Physique du M\'etal
Grenoble
France
;
'Paccard D.'
;
Grenoble Joseph Fourier Institute
Laboratoire d'Electrostatique et de Physique du M\'etal
Grenoble
France
;

# Standardized crystallographic data

_cell_length_a                           4.98
_cell_length_b                           4.98
_cell_length_c                           16.54
_cell_angle_alpha                        90
_cell_angle_beta                         90
_cell_angle_gamma                        120
_cell_volume                             355.24
_cell_formula_units_Z                    6
_space_group_IT_number                   194
_space_group_name_H-M_alt                'P 63/m m c'
loop_
 _space_group_symop_id
 _space_group_symop_operation_xyz
 1 'x, y, z'
 2 '-x+y, -x, 1/2-z'
 3 '-x+y, -x, z'
 4 '-x+y, y, 1/2-z'
 5 '-x+y, y, z'
 6 '-x, -x+y, -z'
 7 '-x, -x+y, 1/2+z'
 8 '-x, -y, -z'
 9 '-x, -y, 1/2+z'
 10 '-y, -x, 1/2-z'
 11 '-y, -x, z'
 12 '-y, x-y, 1/2-z'
 13 '-y, x-y, z'
 14 'x, x-y, 1/2-z'
 15 'x, x-y, z'
 16 'x, y, 1/2-z'
 17 'x-y, -y, -z'
 18 'x-y, -y, 1/2+z'
 19 'x-y, x, -z'
 20 'x-y, x, 1/2+z'
 21 'y, -x+y, -z'
 22 'y, -x+y, 1/2+z'
 23 'y, x, -z'
 24 'y, x, 1/2+z'

# Atomic positions taken from type-defining entry

loop_
 _atom_type_symbol
 Ni
 Ce
loop_
 _atom_site_label
 _atom_site_type_symbol
 _atom_site_symmetry_multiplicity
 _atom_site_Wyckoff_symbol
 _atom_site_fract_x
 _atom_site_fract_y
 _atom_site_fract_z
 _atom_site_occupancy
 Ni1 Ni 12 k 0.1666 0.3332 0.12715 1
 Ce1 Ce 4 f 0.333333 0.666667 0.54178 1
 Ce2 Ce 2 d 0.333333 0.666667 0.75 1
 Ni2 Ni 2 c 0.333333 0.666667 0.25 1
 Ni3 Ni 2 b 0 0 0.25 1
 Ni4 Ni 2 a 0 0 0 1


_exptl_crystal_colour                    ?
_exptl_crystal_density_meas              ?
_exptl_crystal_density_diffrn            8.87
_cell_measurement_temperature            ?
_cell_measurement_radiation              'X-rays, Cr Ka'
_cell_measurement_reflns_used            ?
_diffrn_ambient_temperature              ?
_diffrn_measurement_device               film
_diffrn_measurement_device_type          ?
_diffrn_radiation_type                   ?
_diffrn_reflns_number                    ?
_exptl_absorpt_coefficient_mu            ?
_exptl_absorpt_correction_type           ?
_computing_structure_solution            ?
_refine_ls_number_parameters             ?
_refine_ls_number_reflns                 ?
_refine_ls_R_factor_gt                   ?
_refine_ls_wR_factor_gt                  ?

# Published diffraction lines

loop_
 _refln_index_h
 _refln_index_k
 _refln_index_l
 _refln_d_spacing
 _refln_intensity_meas
 1 0 5 19040 7
 1 1 0 21140 7
 2 0 0 28190 3
 2 0 1 28710 8
 1 1 4 28820 ?
 1 0 7 30540 5
 0 0 8 30700 ?
 2 0 3 32520 5
 2 0 4 35880 3
 1 0 8 37730 3
 1 1 6 38410 3
 1 0 9 45900 2
 0 0 10 47940 3
 1 0 10 55000 3
 1 2 5 61370 5
 3 0 0 63480 3

# End of data set 526005


