##############################################################################
#                                                                            #
# Ce-P             # CeP2 rt                                       # 1010816 #
#                                                                            #
##############################################################################
#                                                                            #
#                           Pearson's Crystal Data                           #
#      Crystal Structure Database for Inorganic Compounds (on DVD)           #
#                              Release 2017/18                               #
#                  Editors: Pierre Villars and Karin Cenzual                 #
#                                                                            #
#   Copyright (c) ASM International & Material Phases Data System (MPDS),    #
# Switzerland & National Institute for Materials Science (NIMS), Japan, 2017 #
#                   All rights reserved. Version 2017.08                     #
#                                                                            #
#   This copy of Pearson's Crystal Data is licensed to:                      #
#   University of Alberta, Chemistry Department, 1-5 Installations License         #
#                                                                            #
##############################################################################

data_1010816
_audit_creation_date                     2017-12-04
_audit_creation_method
;
Pearson's Crystal Data browser
;
#_database_code_PCD                      1010816

# Entry summary

_chemical_formula_structural             'Ce P~2~'
_chemical_formula_sum                    'Ce P2'
_chemical_name_mineral                   ?
_chemical_compound_source                ?
_chemical_name_structure_type            NdAs~2~,mP12,14
_chemical_formula_weight                 202.1

# Bibliographic data

_publ_section_title                      'Ce-Ag-P System'
_journal_coden_ASTM                      PJCHDQ
_journal_name_full                       'Pol. J. Chem.'
_journal_year                            2000
_journal_volume                          74
_journal_page_first                      39
_journal_page_last                       44
_journal_language                        English
loop_
 _publ_author_name
 _publ_author_address
'Demchyna R.O.'
;
Lviv Ivan Franko National University
Department of Analytical Chemistry
Lviv
Ukraine
;
'Chykhrij S.I.'
;
Lviv Ivan Franko National University
Department of Analytical Chemistry
Lviv
Ukraine
;
'Kuz'ma Y.B.'
;
Lviv Ivan Franko National University
Department of Analytical Chemistry
Lviv
Ukraine
;

# Standardized crystallographic data

_cell_length_a                           4.066
_cell_length_b                           6.577
_cell_length_c                           10.157
_cell_angle_alpha                        90
_cell_angle_beta                         105.67
_cell_angle_gamma                        90
_cell_volume                             261.5
_cell_formula_units_Z                    4
_space_group_IT_number                   14
_space_group_name_H-M_alt                'P 1 21/c 1'
loop_
 _space_group_symop_id
 _space_group_symop_operation_xyz
 1 'x, y, z'
 2 '-x, -y, -z'
 3 '-x, 1/2+y, 1/2-z'
 4 'x, 1/2-y, 1/2+z'

# Atomic positions taken from type-defining entry

loop_
 _atom_type_symbol
 P
 Ce
loop_
 _atom_site_label
 _atom_site_type_symbol
 _atom_site_symmetry_multiplicity
 _atom_site_Wyckoff_symbol
 _atom_site_fract_x
 _atom_site_fract_y
 _atom_site_fract_z
 _atom_site_occupancy
 P1 P 4 e 0.0390 0.3564 0.3292 1
 P2 P 4 e 0.2273 0.6223 0.0497 1
 Ce1 Ce 4 e 0.4124 0.1874 0.1402 1


_exptl_crystal_colour                    ?
_exptl_crystal_density_meas              ?
_exptl_crystal_density_diffrn            5.13
_cell_measurement_temperature            ?
_cell_measurement_radiation              'X-rays, Cu Ka'
_cell_measurement_reflns_used            ?
_diffrn_ambient_temperature              ?
_diffrn_measurement_device               'automatic diffractometer'
_diffrn_measurement_device_type          ?
_diffrn_radiation_type                   ?
_diffrn_reflns_number                    ?
_exptl_absorpt_coefficient_mu            ?
_exptl_absorpt_correction_type           ?
_computing_structure_solution            ?
_refine_ls_number_parameters             ?
_refine_ls_number_reflns                 ?
_refine_ls_R_factor_gt                   ?
_refine_ls_wR_factor_gt                  ?

# End of data set 1010816


