##############################################################################
#                                                                            #
# Ce-P             # CeP2 rt                                       #  527602 #
#                                                                            #
##############################################################################
#                                                                            #
#                           Pearson's Crystal Data                           #
#      Crystal Structure Database for Inorganic Compounds (on DVD)           #
#                              Release 2017/18                               #
#                  Editors: Pierre Villars and Karin Cenzual                 #
#                                                                            #
#   Copyright (c) ASM International & Material Phases Data System (MPDS),    #
# Switzerland & National Institute for Materials Science (NIMS), Japan, 2017 #
#                   All rights reserved. Version 2017.08                     #
#                                                                            #
#   This copy of Pearson's Crystal Data is licensed to:                      #
#   University of Alberta, Chemistry Department, 1-5 Installations License         #
#                                                                            #
##############################################################################

data_527602
_audit_creation_date                     2017-12-01
_audit_creation_method
;
Pearson's Crystal Data browser
;
#_database_code_PCD                      527602

# Entry summary

_chemical_formula_structural             'Ce P~2~'
_chemical_formula_sum                    'Ce P2'
_chemical_name_mineral                   ?
_chemical_compound_source                ?
_chemical_name_structure_type            NdAs~2~,mP12,14
_chemical_formula_weight                 202.1

# Bibliographic data

_publ_section_title
'Unit Cell Dimensions of CeP~2~ and PrP~2~'                                   
_journal_coden_ASTM                      ACAPCT
_journal_name_full                       'Acta Chem. Scand. A'
_journal_year                            1974
_journal_volume                          28
_journal_page_first                      123
_journal_page_last                       124
_journal_language                        English
loop_
 _publ_author_name
 _publ_author_address
'Hassler E.'
;
Uppsala University
Institute of Chemistry
Uppsala
Sweden
;
'Johnsson T.'
;
Uppsala University
Institute of Chemistry
Uppsala
Sweden
;
'Rundqvist S.'
;
Uppsala University
Institute of Chemistry
Uppsala
Sweden
;

# Standardized crystallographic data

_cell_length_a                           4.0641
_cell_length_b                           6.5826
_cell_length_c                           10.1591
_cell_angle_alpha                        90
_cell_angle_beta                         105.686
_cell_angle_gamma                        90
_cell_volume                             261.66
_cell_formula_units_Z                    4
_space_group_IT_number                   14
_space_group_name_H-M_alt                'P 1 21/c 1'
loop_
 _space_group_symop_id
 _space_group_symop_operation_xyz
 1 'x, y, z'
 2 '-x, -y, -z'
 3 '-x, 1/2+y, 1/2-z'
 4 'x, 1/2-y, 1/2+z'

# Atomic positions taken from type-defining entry

loop_
 _atom_type_symbol
 P
 Ce
loop_
 _atom_site_label
 _atom_site_type_symbol
 _atom_site_symmetry_multiplicity
 _atom_site_Wyckoff_symbol
 _atom_site_fract_x
 _atom_site_fract_y
 _atom_site_fract_z
 _atom_site_occupancy
 P1 P 4 e 0.0390 0.3564 0.3292 1
 P2 P 4 e 0.2273 0.6223 0.0497 1
 Ce1 Ce 4 e 0.4124 0.1874 0.1402 1


_exptl_crystal_colour                    ?
_exptl_crystal_density_meas              ?
_exptl_crystal_density_diffrn            5.13
_cell_measurement_temperature            ?
_cell_measurement_radiation              'X-rays, Cr Ka1'
_cell_measurement_reflns_used            ?
_diffrn_ambient_temperature              ?
_diffrn_measurement_device               'Guinier-Haegg film'
_diffrn_measurement_device_type          ?
_diffrn_radiation_type                   ?
_diffrn_reflns_number                    ?
_exptl_absorpt_coefficient_mu            ?
_exptl_absorpt_correction_type           ?
_computing_structure_solution            ?
_refine_ls_number_parameters             ?
_refine_ls_number_reflns                 ?
_refine_ls_R_factor_gt                   ?
_refine_ls_wR_factor_gt                  ?

# Published diffraction lines

loop_
 _refln_index_h
 _refln_index_k
 _refln_index_l
 _refln_d_spacing
 _refln_intensity_meas
 0 1 1 43830 5.5
 0 0 2 54620 4.5
 0 1 2 84940 6.5
 1 0 0 85500 3.5
 -1 0 2 103260 5.5
 -1 1 1 111040 3
 1 1 0 115760 3.5
 0 2 0 120950 5
 0 2 1 134610 3.5
 1 1 1 148180 3.5
 -1 0 3 153460 7.5
 0 2 2 175700 2.5
 1 0 2 177340 3
 1 1 2 207670 6.5
 0 0 4 219170 4.5
 -1 2 2 224400 2.5
 -1 0 4 230680 2.5
 1 2 1 238670 2.5
 0 2 3 244270 3.5
 0 1 4 249440 2.5
 -1 1 4 260980 5
 0 3 0 272150 2.5
 0 3 1 285990 3.5
 1 1 3 294600 2.5
 1 2 2 298340 2.5
 -2 0 2 323150 4.5
 0 3 2 326940 2.5
 0 2 4 340220 3
 2 0 0 342100 2.5
 -1 2 4 351720 2.5
 -1 3 1 352960 2.5
 1 3 0 357500 2.5
 2 1 0 372740 3.5
 -1 3 2 375640 2.5
 1 0 4 378880 2.5
 -2 1 3 385140 3
 1 3 1 390200 3
 0 3 3 395620 4.5
 2 1 1 423510 3
 -1 3 3 425690 3
 -2 1 4 444060 3
 -1 2 5 456530 4.5
 2 2 0 463350 2.5
 2 0 2 471170 2.5
 -2 2 3 475610 2.5
 0 4 0 484000 2.5
 0 3 4 491190 2.5
 0 0 6 493180 2.5
 0 4 1 497780 2.5
 -2 0 5 499730 2.5

# End of data set 527602


