##############################################################################
#                                                                            #
# Ce-P             # CeP2 rt                                       #  450972 #
#                                                                            #
##############################################################################
#                                                                            #
#                           Pearson's Crystal Data                           #
#      Crystal Structure Database for Inorganic Compounds (on DVD)           #
#                              Release 2017/18                               #
#                  Editors: Pierre Villars and Karin Cenzual                 #
#                                                                            #
#   Copyright (c) ASM International & Material Phases Data System (MPDS),    #
# Switzerland & National Institute for Materials Science (NIMS), Japan, 2017 #
#                   All rights reserved. Version 2017.08                     #
#                                                                            #
#   This copy of Pearson's Crystal Data is licensed to:                      #
#   University of Alberta, Chemistry Department, 1-5 Installations License         #
#                                                                            #
##############################################################################

data_450972
_audit_creation_date                     2017-12-01
_audit_creation_method
;
Pearson's Crystal Data browser
;
#_database_code_PCD                      450972

# Entry summary

_chemical_formula_structural             'Ce P~2~'
_chemical_formula_sum                    'Ce P2'
_chemical_name_mineral                   ?
_chemical_compound_source                ?
_chemical_name_structure_type            NdAs~2~,mP12,14
_chemical_formula_weight                 202.1

# Bibliographic data

_publ_section_title
'Syntheses of new rare-earth phosphides'                                      
_journal_coden_ASTM                      JCOMAH
_journal_name_full                       'J. Less-Common Met.'
_journal_year                            1974
_journal_volume                          38
_journal_page_first                      119
_journal_page_last                       130
_journal_language                        English
loop_
 _publ_author_name
 _publ_author_address
'Ono S.'
;
National Chemical Laboratory for Industry
Tokyo / Tokyo
Japan
;
'Nomura K.'
;
National Chemical Laboratory for Industry
Tokyo / Tokyo
Japan
;
'Hayakawa H.'
;
National Chemical Laboratory for Industry
Tokyo / Tokyo
Japan
;

# Standardized crystallographic data

_cell_length_a                           4.065
_cell_length_b                           6.58
_cell_length_c                           10.145
_cell_angle_alpha                        90
_cell_angle_beta                         105.64
_cell_angle_gamma                        90
_cell_volume                             261.31
_cell_formula_units_Z                    4
_space_group_IT_number                   14
_space_group_name_H-M_alt                'P 1 21/c 1'
loop_
 _space_group_symop_id
 _space_group_symop_operation_xyz
 1 'x, y, z'
 2 '-x, -y, -z'
 3 '-x, 1/2+y, 1/2-z'
 4 'x, 1/2-y, 1/2+z'

# Atomic positions taken from type-defining entry

loop_
 _atom_type_symbol
 P
 Ce
loop_
 _atom_site_label
 _atom_site_type_symbol
 _atom_site_symmetry_multiplicity
 _atom_site_Wyckoff_symbol
 _atom_site_fract_x
 _atom_site_fract_y
 _atom_site_fract_z
 _atom_site_occupancy
 P1 P 4 e 0.0390 0.3564 0.3292 1
 P2 P 4 e 0.2273 0.6223 0.0497 1
 Ce1 Ce 4 e 0.4124 0.1874 0.1402 1


_exptl_crystal_colour                    ?
_exptl_crystal_density_meas              5.12
_exptl_crystal_density_diffrn            5.14
_cell_measurement_temperature            ?
_cell_measurement_radiation              'X-rays, Cu Ka'
_cell_measurement_reflns_used            ?
_diffrn_ambient_temperature              ?
_diffrn_measurement_device               diffractometer
_diffrn_measurement_device_type          ?
_diffrn_radiation_type                   ?
_diffrn_reflns_number                    ?
_exptl_absorpt_coefficient_mu            ?
_exptl_absorpt_correction_type           ?
_computing_structure_solution            ?
_refine_ls_number_parameters             ?
_refine_ls_number_reflns                 ?
_refine_ls_R_factor_gt                   ?
_refine_ls_wR_factor_gt                  ?

# Published diffraction lines

loop_
 _refln_index_h
 _refln_index_k
 _refln_index_l
 _refln_d_spacing
 _refln_intensity_meas
 0 1 2 39.26 7
 -1 0 2 35.58 5
 0 2 0 32.92 5
 -1 1 2 31.31 7
 1 1 1 29.74 3
 0 1 3 29.22 5
 -1 2 1 25.47 7
 1 1 2 25.11 8
 0 0 4 24.42 3
 -1 0 4 23.8 3
 0 2 3 23.15 3
 -1 1 4 22.38 5
 -2 0 2 20.14 5
 0 2 4 19.61 3
 2 1 0 18.7 3
 1 3 1 18.2 5
 2 1 1 17.6 2

# End of data set 450972


