##############################################################################
#                                                                            #
# Ce-P             # CeP5                                          #  450971 #
#                                                                            #
##############################################################################
#                                                                            #
#                           Pearson's Crystal Data                           #
#      Crystal Structure Database for Inorganic Compounds (on DVD)           #
#                              Release 2017/18                               #
#                  Editors: Pierre Villars and Karin Cenzual                 #
#                                                                            #
#   Copyright (c) ASM International & Material Phases Data System (MPDS),    #
# Switzerland & National Institute for Materials Science (NIMS), Japan, 2017 #
#                   All rights reserved. Version 2017.08                     #
#                                                                            #
#   This copy of Pearson's Crystal Data is licensed to:                      #
#   University of Alberta, Chemistry Department, 1-5 Installations License         #
#                                                                            #
##############################################################################

data_450971
_audit_creation_date                     2017-12-01
_audit_creation_method
;
Pearson's Crystal Data browser
;
#_database_code_PCD                      450971

# Entry summary

_chemical_formula_structural             'Ce P~5~'
_chemical_formula_sum                    'Ce P5'
_chemical_name_mineral                   ?
_chemical_compound_source                ?
_chemical_name_structure_type            NdP~5~,mP12,11
_chemical_formula_weight                 295.0

# Bibliographic data

_publ_section_title
'Syntheses of new rare-earth phosphides'                                      
_journal_coden_ASTM                      JCOMAH
_journal_name_full                       'J. Less-Common Met.'
_journal_year                            1974
_journal_volume                          38
_journal_page_first                      119
_journal_page_last                       130
_journal_language                        English
loop_
 _publ_author_name
 _publ_author_address
'Ono S.'
;
National Chemical Laboratory for Industry
Tokyo / Tokyo
Japan
;
'Nomura K.'
;
National Chemical Laboratory for Industry
Tokyo / Tokyo
Japan
;
'Hayakawa H.'
;
National Chemical Laboratory for Industry
Tokyo / Tokyo
Japan
;

# Standardized crystallographic data

_cell_length_a                           4.955
_cell_length_b                           9.624
_cell_length_c                           5.5
_cell_angle_alpha                        90
_cell_angle_beta                         103.85
_cell_angle_gamma                        90
_cell_volume                             254.65
_cell_formula_units_Z                    2
_space_group_IT_number                   11
_space_group_name_H-M_alt                'P 1 21/m 1'
loop_
 _space_group_symop_id
 _space_group_symop_operation_xyz
 1 'x, y, z'
 2 '-x, -y, -z'
 3 '-x, 1/2+y, -z'
 4 'x, 1/2-y, z'

# Atomic positions taken from type-defining entry

loop_
 _atom_type_symbol
 P
 Ce
loop_
 _atom_site_label
 _atom_site_type_symbol
 _atom_site_symmetry_multiplicity
 _atom_site_Wyckoff_symbol
 _atom_site_fract_x
 _atom_site_fract_y
 _atom_site_fract_z
 _atom_site_occupancy
 P1 P 4 f 0.1185 0.5903 0.4578 1
 P2 P 4 f 0.2101 0.5338 0.1009 1
 P3 P 2 e 0.2136 0.25 0.5908 1
 Ce1 Ce 2 e 0.48097 0.25 0.14256 1


_exptl_crystal_colour                    ?
_exptl_crystal_density_meas              3.84
_exptl_crystal_density_diffrn            3.85
_cell_measurement_temperature            ?
_cell_measurement_radiation              'X-rays, Cu Ka'
_cell_measurement_reflns_used            ?
_diffrn_ambient_temperature              ?
_diffrn_measurement_device               diffractometer
_diffrn_measurement_device_type          ?
_diffrn_radiation_type                   ?
_diffrn_reflns_number                    ?
_exptl_absorpt_coefficient_mu            ?
_exptl_absorpt_correction_type           ?
_computing_structure_solution            ?
_refine_ls_number_parameters             ?
_refine_ls_number_reflns                 ?
_refine_ls_R_factor_gt                   ?
_refine_ls_wR_factor_gt                  ?

# End of data set 450971


