##############################################################################
#                                                                            #
# Al-Ce-Pd         # CePdAl ht                                     # 1501700 #
#                                                                            #
##############################################################################
#                                                                            #
#                           Pearson's Crystal Data                           #
#      Crystal Structure Database for Inorganic Compounds (on DVD)           #
#                              Release 2017/18                               #
#                  Editors: Pierre Villars and Karin Cenzual                 #
#                                                                            #
#   Copyright (c) ASM International & Material Phases Data System (MPDS),    #
# Switzerland & National Institute for Materials Science (NIMS), Japan, 2017 #
#                   All rights reserved. Version 2017.08                     #
#                                                                            #
#   This copy of Pearson's Crystal Data is licensed to:                      #
#   University of Alberta, Chemistry Department, 1-5 Installations License         #
#                                                                            #
##############################################################################

data_1501700
_audit_creation_date                     2017-12-05
_audit_creation_method
;
Pearson's Crystal Data browser
;
#_database_code_PCD                      1501700

# Entry summary

_chemical_formula_structural             'Ce Pd Al'
_chemical_formula_sum                    'Al Ce Pd'
_chemical_name_mineral                   ?
_chemical_compound_source                ?
_chemical_name_structure_type            ZrNiAl,hP9,189
_chemical_formula_weight                 273.5

# Bibliographic data

_publ_section_title                      'Structure of CePdAl'
_journal_coden_ASTM                      ACSCEE
_journal_name_full                       'Acta Crystallogr. C'
_journal_year                            1994
_journal_volume                          50
_journal_page_first                      338
_journal_page_last                       340
_journal_language                        English
loop_
 _publ_author_name
 _publ_author_address
'Xue B.Z.'
;
Swiss Federal Institute of Technology (ETH)
Laboratorium f\"ur Festk\"orperphysik
Zurich
Switzerland
;
'Schwer H.'
;
Swiss Federal Institute of Technology (ETH)
Laboratorium f\"ur Festk\"orperphysik
Zurich
Switzerland
;
'Hulliger F.'
;
Swiss Federal Institute of Technology (ETH)
Laboratorium f\"ur Festk\"orperphysik
Zurich
Switzerland
;

# Standardized crystallographic data

_cell_length_a                           7.2198
_cell_length_b                           7.2198
_cell_length_c                           4.2329
_cell_angle_alpha                        90
_cell_angle_beta                         90
_cell_angle_gamma                        120
_cell_volume                             191.1
_cell_formula_units_Z                    3
_space_group_IT_number                   189
_space_group_name_H-M_alt                'P -6 2 m'
loop_
 _space_group_symop_id
 _space_group_symop_operation_xyz
 1 'x, y, z'
 2 '-x+y, -x, -z'
 3 '-x+y, -x, z'
 4 '-x, -x+y, -z'
 5 '-x, -x+y, z'
 6 '-y, x-y, -z'
 7 '-y, x-y, z'
 8 'x, y, -z'
 9 'x-y, -y, -z'
 10 'x-y, -y, z'
 11 'y, x, -z'
 12 'y, x, z'
loop_
 _atom_type_symbol
 Al
 Ce
 Pd
loop_
 _atom_site_label
 _atom_site_type_symbol
 _atom_site_symmetry_multiplicity
 _atom_site_Wyckoff_symbol
 _atom_site_fract_x
 _atom_site_fract_y
 _atom_site_fract_z
 _atom_site_occupancy
 Al Al 3 g 0.2288 0 0.5 1
 Ce Ce 3 f 0.5792 0 0 1
 Pd1 Pd 2 d 0.333333 0.666667 0.5 1
 Pd2 Pd 1 a 0 0 0 1


_exptl_crystal_colour                    'gray silver'
_exptl_crystal_density_meas              ?
_exptl_crystal_density_diffrn            7.13
_cell_measurement_temperature            295
_cell_measurement_radiation              'X-rays, Mo Ka'
_cell_measurement_wavelength             0.71073
_cell_measurement_reflns_used            20
_diffrn_ambient_temperature              295
_diffrn_measurement_device               'automatic diffractometer'
_diffrn_measurement_device_type          'Siemens P3/PC'
_diffrn_radiation_type                   'X-rays, Mo Ka'
_diffrn_radiation_wavelength             0.71073
_diffrn_reflns_number                    3402
_exptl_absorpt_coefficient_mu            24.63
_exptl_absorpt_correction_type           analytical
_computing_structure_solution            'starting values from the literature'
_refine_ls_number_parameters             18
_refine_ls_number_reflns                 348
_refine_ls_R_factor_gt                   0.042
_refine_ls_wR_factor_gt                  0.113

# End of data set 1501700


