##############################################################################
#                                                                            #
# Br-Ce-S-Sb       # CeSbS2Br2                                     # 1001245 #
#                                                                            #
##############################################################################
#                                                                            #
#                           Pearson's Crystal Data                           #
#      Crystal Structure Database for Inorganic Compounds (on DVD)           #
#                              Release 2017/18                               #
#                  Editors: Pierre Villars and Karin Cenzual                 #
#                                                                            #
#   Copyright (c) ASM International & Material Phases Data System (MPDS),    #
# Switzerland & National Institute for Materials Science (NIMS), Japan, 2017 #
#                   All rights reserved. Version 2017.08                     #
#                                                                            #
#   This copy of Pearson's Crystal Data is licensed to:                      #
#   University of Alberta, Chemistry Department, 1-5 Installations License         #
#                                                                            #
##############################################################################

data_1001245
_audit_creation_date                     2017-12-04
_audit_creation_method
;
Pearson's Crystal Data browser
;
#_database_code_PCD                      1001245

# Entry summary

_chemical_formula_structural             'Ce Sb S~2~ Br~2~'
_chemical_formula_sum                    'Br2 Ce S2 Sb'
_chemical_name_mineral                   ?
_chemical_compound_source                ?
_chemical_name_structure_type            CeSbS~2~Br~2~,mP48,14
_chemical_formula_weight                 485.8

# Bibliographic data

_publ_section_title
;
New Antimony Lanthanide Disulfide Dibromides LnSbS~2~Br~2~ (Ln= La, Ce): Crystal and Electronic Structures and Optical Properties
;
_journal_coden_ASTM                      JSSCBI
_journal_name_full                       'J. Solid State Chem.'
_journal_year                            2001
_journal_volume                          158
_journal_page_first                      218
_journal_page_last                       226
_journal_language                        English
loop_
 _publ_author_name
 _publ_author_address
'Gout D.J.'
;
Nantes University
Institut des Mat\'eriaux Jean Rouxel
Nantes
France
;
'Jobic S.'
;
Nantes University
Laboratoire de Chimie des Solides
Nantes
France
;
'Evain M.'
;
Nantes University
Institut des Mat\'eriaux Jean Rouxel
Nantes
France
;
'Brec R.'
;
Nantes University
Institut des Mat\'eriaux Jean Rouxel
Nantes
France
;

# Standardized crystallographic data

_cell_length_a                           8.709
_cell_length_b                           9.187
_cell_length_c                           17.397
_cell_angle_alpha                        90
_cell_angle_beta                         104.26
_cell_angle_gamma                        90
_cell_volume                             1349
_cell_formula_units_Z                    8
_space_group_IT_number                   14
_space_group_name_H-M_alt                'P 1 21/c 1'
loop_
 _space_group_symop_id
 _space_group_symop_operation_xyz
 1 'x, y, z'
 2 '-x, -y, -z'
 3 '-x, 1/2+y, 1/2-z'
 4 'x, 1/2-y, 1/2+z'
loop_
 _atom_type_symbol
 S
 Br
 Ce
 Sb
loop_
 _atom_site_label
 _atom_site_type_symbol
 _atom_site_symmetry_multiplicity
 _atom_site_Wyckoff_symbol
 _atom_site_fract_x
 _atom_site_fract_y
 _atom_site_fract_z
 _atom_site_occupancy
 S1 S 4 e 0.0737 0.3498 0.0525 1
 Br2 Br 4 e 0.0782 0.869 0.13334 1
 Ce2 Ce 4 e 0.122 0.3668 0.24447 1
 Br3 Br 4 e 0.157 0.6722 0.3341 1
 Br4 Br 4 e 0.1622 0.0575 0.3404 1
 Sb2 Sb 4 e 0.2704 0.5441 0.04765 1
 Sb1 Sb 4 e 0.2739 0.1573 0.0545 1
 S3 S 4 e 0.3361 0.5628 0.1904 1
 S2 S 4 e 0.3396 0.1628 0.1968 1
 Br1 Br 4 e 0.4453 0.3715 0.37195 1
 S4 S 4 e 0.4757 0.3486 0.0533 1
 Ce1 Ce 4 e 0.6135 0.3623 0.23634 1


_exptl_crystal_colour                    yellow
_exptl_crystal_density_meas              ?
_exptl_crystal_density_diffrn            4.78
_cell_measurement_temperature            293
_cell_measurement_radiation              'X-rays, Mo Ka'
_cell_measurement_wavelength             0.71069
_cell_measurement_reflns_used            ?
_diffrn_ambient_temperature              293
_diffrn_measurement_device               'automatic diffractometer'
_diffrn_measurement_device_type          STOE
_diffrn_radiation_type                   'X-rays, Mo Ka'
_diffrn_radiation_wavelength             0.71069
_diffrn_reflns_number                    11251
_diffrn_reflns_theta_min                 1.9
_diffrn_reflns_theta_max                 28.15
_exptl_absorpt_coefficient_mu            22.998
_exptl_absorpt_correction_type           analytical
_computing_structure_solution            'direct methods'
_refine_ls_number_parameters             111
_refine_ls_number_reflns                 1754
_refine_ls_R_factor_gt                   0.0350
_refine_ls_wR_factor_gt                  0.0606

# End of data set 1001245


