##############################################################################
#                                                                            #
# Cf               # Cf                                            #  383755 #
#                                                                            #
##############################################################################
#                                                                            #
#                           Pearson's Crystal Data                           #
#      Crystal Structure Database for Inorganic Compounds (on DVD)           #
#                              Release 2017/18                               #
#                  Editors: Pierre Villars and Karin Cenzual                 #
#                                                                            #
#   Copyright (c) ASM International & Material Phases Data System (MPDS),    #
# Switzerland & National Institute for Materials Science (NIMS), Japan, 2017 #
#                   All rights reserved. Version 2017.08                     #
#                                                                            #
#   This copy of Pearson's Crystal Data is licensed to:                      #
#   University of Alberta, Chemistry Department, 1-5 Installations License         #
#                                                                            #
##############################################################################

data_383755
_audit_creation_date                     2017-12-01
_audit_creation_method
;
Pearson's Crystal Data browser
;
#_database_code_PCD                      383755

# Entry summary

_chemical_formula_structural             Cf
_chemical_formula_sum                    Cf
_chemical_name_mineral                   ?
_chemical_compound_source                ?
_chemical_name_structure_type            Mg,hP2,194
_chemical_formula_weight                 251.0
_chemical_melting_point                  1173(30)

# Bibliographic data

_publ_section_title
'Crystal structure and melting point of californium metal'                    
_journal_coden_ASTM                      JINCAO
_journal_name_full                       'J. Inorg. Nucl. Chem.'
_journal_year                            1974
_journal_volume                          36
_journal_page_first                      1295
_journal_page_last                       1302
_journal_language                        English
loop_
 _publ_author_name
 _publ_author_address
'Haire R.G.'
;
Oak Ridge National Laboratory
Oak Ridge
U.S.A. Tennessee
;
'Baybarz R.D.'
;
Oak Ridge National Laboratory
Oak Ridge
U.S.A. Tennessee
;

# Standardized crystallographic data

_cell_length_a                           3.988
_cell_length_b                           3.988
_cell_length_c                           6.887
_cell_angle_alpha                        90
_cell_angle_beta                         90
_cell_angle_gamma                        120
_cell_volume                             94.9
_cell_formula_units_Z                    2
_space_group_IT_number                   194
_space_group_name_H-M_alt                'P 63/m m c'
loop_
 _space_group_symop_id
 _space_group_symop_operation_xyz
 1 'x, y, z'
 2 '-x+y, -x, 1/2-z'
 3 '-x+y, -x, z'
 4 '-x+y, y, 1/2-z'
 5 '-x+y, y, z'
 6 '-x, -x+y, -z'
 7 '-x, -x+y, 1/2+z'
 8 '-x, -y, -z'
 9 '-x, -y, 1/2+z'
 10 '-y, -x, 1/2-z'
 11 '-y, -x, z'
 12 '-y, x-y, 1/2-z'
 13 '-y, x-y, z'
 14 'x, x-y, 1/2-z'
 15 'x, x-y, z'
 16 'x, y, 1/2-z'
 17 'x-y, -y, -z'
 18 'x-y, -y, 1/2+z'
 19 'x-y, x, -z'
 20 'x-y, x, 1/2+z'
 21 'y, -x+y, -z'
 22 'y, -x+y, 1/2+z'
 23 'y, x, -z'
 24 'y, x, 1/2+z'
loop_
 _atom_type_symbol
 Cf
loop_
 _atom_site_label
 _atom_site_type_symbol
 _atom_site_symmetry_multiplicity
 _atom_site_Wyckoff_symbol
 _atom_site_fract_x
 _atom_site_fract_y
 _atom_site_fract_z
 _atom_site_occupancy
 Cf Cf 2 c 0.333333 0.666667 0.25 1


_exptl_crystal_colour                    ?
_exptl_crystal_density_meas              ?
_exptl_crystal_density_diffrn            8.79
_cell_measurement_temperature            ?
_cell_measurement_radiation              electrons
_cell_measurement_reflns_used            ?
_diffrn_ambient_temperature              ?
_diffrn_measurement_device               film
_diffrn_measurement_device_type          ?
_diffrn_radiation_type                   ?
_diffrn_reflns_number                    ?
_exptl_absorpt_coefficient_mu            ?
_exptl_absorpt_correction_type           ?
_computing_structure_solution            ?
_refine_ls_number_parameters             ?
_refine_ls_number_reflns                 ?
_refine_ls_R_factor_gt                   ?
_refine_ls_wR_factor_gt                  ?

# Published diffraction lines

loop_
 _refln_index_h
 _refln_index_k
 _refln_index_l
 _refln_d_spacing
 _refln_intensity_meas
 0 0 1 68.9 6
 1 0 0 34.6 7
 1 0 1 30.92 10
 1 0 2 24.38 6
 0 0 3 22.76 2
 1 1 0 20 8
 1 1 1 19.1 6
 2 0 0 17.27 6
 2 0 1 16.78 6
 2 0 2 15.45 4
 1 1 3 15.07 4
 2 0 3 13.83 4
 2 1 0 13.08 4
 1 0 5 12.83 6
 2 1 2 12.22 1
 3 0 0 11.51 1
 3 0 1 11.36 4
 3 0 2 10.94 4
 2 0 5 10.74 1
 2 1 4 10.49 1
 3 0 3 10.34 1
 2 2 0 9.98 1
 3 1 0 9.59 1
 3 1 2 9.25 1
 3 1 3 8.836 1
 2 2 4 8.615 1
 4 0 2 8.379 1
 4 0 3 8.092 1
 3 2 0 7.953 1
 4 1 0 7.512 1
 4 1 2 7.355 1
 4 1 3 7.174 1
 2 0 9 6.982 1
 3 2 5 6.866 1

# End of data set 383755


