##############################################################################
#                                                                            #
# Cf-O             # Cf2O3 ht1                                     #  531133 #
#                                                                            #
##############################################################################
#                                                                            #
#                           Pearson's Crystal Data                           #
#      Crystal Structure Database for Inorganic Compounds (on DVD)           #
#                              Release 2017/18                               #
#                  Editors: Pierre Villars and Karin Cenzual                 #
#                                                                            #
#   Copyright (c) ASM International & Material Phases Data System (MPDS),    #
# Switzerland & National Institute for Materials Science (NIMS), Japan, 2017 #
#                   All rights reserved. Version 2017.08                     #
#                                                                            #
#   This copy of Pearson's Crystal Data is licensed to:                      #
#   University of Alberta, Chemistry Department, 1-5 Installations License         #
#                                                                            #
##############################################################################

data_531133
_audit_creation_date                     2017-12-01
_audit_creation_method
;
Pearson's Crystal Data browser
;
#_database_code_PCD                      531133

# Entry summary

_chemical_formula_structural             'Cf~2~ O~3~'
_chemical_formula_sum                    'Cf2 O3'
_chemical_name_mineral                   ?
_chemical_compound_source                ?
_chemical_name_structure_type            Sm~2~O~3~,mS30,12
_chemical_formula_weight                 550.0

# Bibliographic data

_publ_section_title
;
Crystallography of the compounds of californium. I. Crystal structure and lattice parameters of californium sesquioxide and californium trichloride
;
_journal_coden_ASTM                      INUCAF
_journal_name_full                       'Inorg. Nucl. Chem. Lett.'
_journal_year                            1967
_journal_volume                          3
_journal_page_first                      343
_journal_page_last                       349
_journal_language                        English
loop_
 _publ_author_name
 _publ_author_address
'Green J.L.'
;
California Berkeley University
Department of Chemistry
Berkeley
U.S.A. California
;
'Cunningham B.B.'
;
California Berkeley University
Department of Chemistry
Berkeley
U.S.A. California
;

# Standardized crystallographic data

_cell_length_a                           14.124
_cell_length_b                           3.591
_cell_length_c                           8.809
_cell_angle_alpha                        90
_cell_angle_beta                         100.31
_cell_angle_gamma                        90
_cell_volume                             439.57
_cell_formula_units_Z                    6
_space_group_IT_number                   12
_space_group_name_H-M_alt                'C 1 2/m 1'
loop_
 _space_group_symop_id
 _space_group_symop_operation_xyz
 1 'x, y, z'
 2 '-x, -y, -z'
 3 '-x, y, -z'
 4 'x, -y, z'
 5 '1/2+x, 1/2+y, z'
 6 '1/2-x, 1/2-y, -z'
 7 '1/2-x, 1/2+y, -z'
 8 '1/2+x, 1/2-y, z'

# Atomic positions taken from type-defining entry

loop_
 _atom_type_symbol
 O
 Cf
loop_
 _atom_site_label
 _atom_site_type_symbol
 _atom_site_symmetry_multiplicity
 _atom_site_Wyckoff_symbol
 _atom_site_fract_x
 _atom_site_fract_y
 _atom_site_fract_z
 _atom_site_occupancy
 O1 O 4 i 0.0259 0 0.6562 1
 Cf1 Cf 4 i 0.13463 0 0.49003 1
 Cf2 Cf 4 i 0.18996 0 0.13782 1
 O2 O 4 i 0.2984 0 0.3738 1
 O3 O 4 i 0.3250 0 0.0265 1
 Cf3 Cf 4 i 0.46627 0 0.18794 1
 O4 O 4 i 0.6289 0 0.2864 1
 O5 O 2 a 0 0 0 1


_exptl_crystal_colour                    ?
_exptl_crystal_density_meas              ?
_exptl_crystal_density_diffrn            12.47
_cell_measurement_temperature            ?
_cell_measurement_radiation              'X-rays, Cu K'
_cell_measurement_wavelength             1.54178
_pd_proc_wavelength                      1.54178
_cell_measurement_reflns_used            ?
_diffrn_ambient_temperature              ?
_diffrn_measurement_device               'Norelco film'
_diffrn_measurement_device_type          ?
_diffrn_radiation_type                   ?
_diffrn_reflns_number                    ?
_exptl_absorpt_coefficient_mu            ?
_exptl_absorpt_correction_type           ?
_computing_structure_solution            ?
_refine_ls_number_parameters             ?
_refine_ls_number_reflns                 ?
_refine_ls_R_factor_gt                   ?
_refine_ls_wR_factor_gt                  ?

# Published diffraction lines

loop_
 _refln_index_h
 _refln_index_k
 _refln_index_l
 _refln_d_spacing
 _refln_intensity_meas
 1 1 1 0.589 10
 4 0 1 0.641 9
 4 0 -2 0.665 9
 0 0 3 0.711 8
 3 1 0 0.736 9
 1 1 -2 0.773 10
 6 0 0 1.106 4
 5 1 -1 1.221 5
 3 1 -3 1.287 7.5
 3 1 3 1.609 7.5
 0 2 0 1.836 6
 8 0 -1 1.908 4.5
 7 1 -2 2.037 6.5

# End of data set 531133


