##############################################################################
#                                                                            #
# Br-Cf            # CfBr3 rt                                      #  541761 #
#                                                                            #
##############################################################################
#                                                                            #
#                           Pearson's Crystal Data                           #
#      Crystal Structure Database for Inorganic Compounds (on DVD)           #
#                              Release 2017/18                               #
#                  Editors: Pierre Villars and Karin Cenzual                 #
#                                                                            #
#   Copyright (c) ASM International & Material Phases Data System (MPDS),    #
# Switzerland & National Institute for Materials Science (NIMS), Japan, 2017 #
#                   All rights reserved. Version 2017.08                     #
#                                                                            #
#   This copy of Pearson's Crystal Data is licensed to:                      #
#   University of Alberta, Chemistry Department, 1-5 Installations License         #
#                                                                            #
##############################################################################

data_541761
_audit_creation_date                     2017-12-04
_audit_creation_method
;
Pearson's Crystal Data browser
;
#_database_code_PCD                      541761

# Entry summary

_chemical_formula_structural             'Cf Br~3~'
_chemical_formula_sum                    'Br3 Cf'
_chemical_name_mineral                   ?
_chemical_compound_source                ?
_chemical_name_structure_type            AlCl~3~,mS16,12
_chemical_formula_weight                 490.7

# Bibliographic data

_publ_section_title
;
Crystallographic studies of some transuranic trihalides: ^239^PuCl~3~, ^244^CmBr~3~, ^249^BkBr~3~ and ^249^CfBr~3~
;
_journal_coden_ASTM                      JINCAO
_journal_name_full                       'J. Inorg. Nucl. Chem.'
_journal_year                            1975
_journal_volume                          37
_journal_page_first                      743
_journal_page_last                       749
_journal_language                        English
loop_
 _publ_author_name
 _publ_author_address
'Burns J.H.'
;
Oak Ridge National Laboratory
Transuranium Research Laboratory
Oak Ridge
U.S.A. Tennessee
;
'Peterson J.R.'
;
Tennessee Knoxville University
Department of Chemistry
Knoxville
U.S.A. Tennessee
;
'Stevenson J.N.'
;
Oak Ridge National Laboratory
Transuranium Research Laboratory
Oak Ridge
U.S.A. Tennessee
;

# Standardized crystallographic data

_cell_length_a                           7.214
_cell_length_b                           12.423
_cell_length_c                           6.825
_cell_angle_alpha                        90
_cell_angle_beta                         110.7
_cell_angle_gamma                        90
_cell_volume                             572.17
_cell_formula_units_Z                    4
_space_group_IT_number                   12
_space_group_name_H-M_alt                'C 1 2/m 1'
loop_
 _space_group_symop_id
 _space_group_symop_operation_xyz
 1 'x, y, z'
 2 '-x, -y, -z'
 3 '-x, y, -z'
 4 'x, -y, z'
 5 '1/2+x, 1/2+y, z'
 6 '1/2-x, 1/2-y, -z'
 7 '1/2-x, 1/2+y, -z'
 8 '1/2+x, 1/2-y, z'
loop_
 _atom_type_symbol
 Br
 Cf
loop_
 _atom_site_label
 _atom_site_type_symbol
 _atom_site_symmetry_multiplicity
 _atom_site_Wyckoff_symbol
 _atom_site_fract_x
 _atom_site_fract_y
 _atom_site_fract_z
 _atom_site_occupancy
 Br(2) Br 8 j 0.2564 0.323 0.244 1
 Br(1) Br 4 i 0.228 0 0.2556 1
 Cf Cf 4 g 0 0.1666 0 1


_exptl_crystal_colour                    green
_exptl_crystal_density_meas              ?
_exptl_crystal_density_diffrn            5.70
_cell_measurement_temperature            ?
_cell_measurement_radiation              'X-rays, Cu Ka'
_cell_measurement_reflns_used            ?
_diffrn_ambient_temperature              ?
_diffrn_measurement_device               'automatic diffractometer'
_diffrn_measurement_device_type          Picker
_diffrn_radiation_type                   'X-rays, Mo Ka'
_diffrn_reflns_number                    1112
_exptl_absorpt_coefficient_mu            39.7
_exptl_absorpt_correction_type           ?
_computing_structure_solution            'starting values from the literature'
_refine_ls_number_parameters             10
_refine_ls_number_reflns                 273
_refine_ls_R_factor_gt                   0.095
_refine_ls_wR_factor_gt                  ?

# End of data set 541761


