##############################################################################
#                                                                            #
# Cl-O             # ClO3 lt                                       #  541368 #
#                                                                            #
##############################################################################
#                                                                            #
#                           Pearson's Crystal Data                           #
#      Crystal Structure Database for Inorganic Compounds (on DVD)           #
#                              Release 2017/18                               #
#                  Editors: Pierre Villars and Karin Cenzual                 #
#                                                                            #
#   Copyright (c) ASM International & Material Phases Data System (MPDS),    #
# Switzerland & National Institute for Materials Science (NIMS), Japan, 2017 #
#                   All rights reserved. Version 2017.08                     #
#                                                                            #
#   This copy of Pearson's Crystal Data is licensed to:                      #
#   University of Alberta, Chemistry Department, 1-5 Installations License         #
#                                                                            #
##############################################################################

data_541368
_audit_creation_date                     2017-12-04
_audit_creation_method
;
Pearson's Crystal Data browser
;
#_database_code_PCD                      541368

# Entry summary

_chemical_formula_structural             'Cl O~3~'
_chemical_formula_sum                    'Cl O3'
_chemical_name_mineral                   ?
_chemical_compound_source                ?
_chemical_name_structure_type            ClO~3~,mS32,9
_chemical_formula_weight                 83.5

# Bibliographic data

_publ_section_title                      'Struktur von Cl~2~O~6~ im Kristall'
_journal_coden_ASTM                      ANCEAD
_journal_name_full                       'Angew. Chem.'
_journal_year                            1986
_journal_volume                          98
_journal_page_first                      994
_journal_page_last                       995
_journal_language                        German
loop_
 _publ_author_name
 _publ_author_address
'Tobias K.M.'
;
Hannover Gottfried Wilhelm Leibniz University
Institut f\"ur Anorganische Chemie
Hannover
Germany
;
'Jansen M.'
;
Hannover Gottfried Wilhelm Leibniz University
Institut f\"ur Anorganische Chemie
Hannover
Germany
;

# Standardized crystallographic data

_cell_length_a                           5.563
_cell_length_b                           8.613
_cell_length_c                           9.785
_cell_angle_alpha                        90
_cell_angle_beta                         100.56
_cell_angle_gamma                        90
_cell_volume                             460.9
_cell_formula_units_Z                    8
_space_group_IT_number                   9
_space_group_name_H-M_alt                'C 1 c 1'
loop_
 _space_group_symop_id
 _space_group_symop_operation_xyz
 1 'x, y, z'
 2 'x, -y, 1/2+z'
 3 '1/2+x, 1/2+y, z'
 4 '1/2+x, 1/2-y, 1/2+z'

# Atomic positions taken from type-defining entry

loop_
 _atom_type_symbol
 O
 Cl
loop_
 _atom_site_label
 _atom_site_type_symbol
 _atom_site_symmetry_multiplicity
 _atom_site_Wyckoff_symbol
 _atom_site_fract_x
 _atom_site_fract_y
 _atom_site_fract_z
 _atom_site_occupancy
 O1 O 4 a 0.0000 0.2027 0.0000 1
 O2 O 4 a 0.0900 0.4191 0.2632 1
 Cl1 Cl 4 a 0.1254 0.5683 0.3126 1
 Cl2 Cl 4 a 0.1332 0.0671 0.0517 1
 O3 O 4 a 0.1816 0.0699 0.2035 1
 O4 O 4 a 0.2035 0.6984 0.2455 1
 O5 O 4 a 0.3616 0.0601 0.0056 1
 O6 O 4 a 0.4886 0.4297 0.0075 1


_exptl_crystal_colour                    ?
_exptl_crystal_density_meas              ?
_exptl_crystal_density_diffrn            2.41
_cell_measurement_temperature            203
_cell_measurement_radiation              'X-rays, Mo Ka'
_cell_measurement_reflns_used            ?
_diffrn_ambient_temperature              ?
_diffrn_measurement_device               'automatic diffractometer'
_diffrn_measurement_device_type          ?
_diffrn_radiation_type                   ?
_diffrn_reflns_number                    ?
_exptl_absorpt_coefficient_mu            ?
_exptl_absorpt_correction_type           ?
_computing_structure_solution            ?
_refine_ls_number_parameters             ?
_refine_ls_number_reflns                 ?
_refine_ls_R_factor_gt                   ?
_refine_ls_wR_factor_gt                  ?

# End of data set 541368


