##############################################################################
#                                                                            #
# Cm               # Cm hp2                                        # 1521019 #
#                                                                            #
##############################################################################
#                                                                            #
#                           Pearson's Crystal Data                           #
#      Crystal Structure Database for Inorganic Compounds (on DVD)           #
#                              Release 2017/18                               #
#                  Editors: Pierre Villars and Karin Cenzual                 #
#                                                                            #
#   Copyright (c) ASM International & Material Phases Data System (MPDS),    #
# Switzerland & National Institute for Materials Science (NIMS), Japan, 2017 #
#                   All rights reserved. Version 2017.08                     #
#                                                                            #
#   This copy of Pearson's Crystal Data is licensed to:                      #
#   University of Alberta, Chemistry Department, 1-5 Installations License         #
#                                                                            #
##############################################################################

data_1521019
_audit_creation_date                     2017-12-05
_audit_creation_method
;
Pearson's Crystal Data browser
;
#_database_code_PCD                      1521019

# Entry summary

_chemical_formula_structural             Cm
_chemical_formula_sum                    Cm
_chemical_name_mineral                   ?
_chemical_compound_source                ?
_chemical_name_structure_type            Cm,mS4,15
_chemical_formula_weight                 247.0

# Bibliographic data

_publ_section_title
'A high-pressure structure in curium linked to magnetism'                     
_journal_coden_ASTM                      SCIEAS
_journal_name_full                       'Science (Washington D.C.)'
_journal_year                            2005
_journal_volume                          309
_journal_page_first                      110
_journal_page_last                       113
_journal_language                        English
loop_
 _publ_author_name
 _publ_author_address
'Heathman S.'
;
European Commission Joint Research Center
Institute for Transuranium Elements
Karlsruhe
Germany
;
'Lander G.H.'
;
European Commission Joint Research Center
Institute for Transuranium Elements
Karlsruhe
Germany
;
'Haire R.G.'
;
Oak Ridge National Laboratory
Chemical Science Division
Oak Ridge
U.S.A. Tennessee
;
'Le Bihan T.'
;
European Synchrotron Radiation Facility (ESRF)
Grenoble
France
;
'Lindbaum A.'
;
Vienna Technical University
Institut f\"ur Festk\"orperphysik
Vienna
Austria
;
'Idiri M.'
;
European Commission Joint Research Center
Institute for Transuranium Elements
Karlsruhe
Germany
;
'Normile P.'
;
European Commission Joint Research Center
Institute for Transuranium Elements
Karlsruhe
Germany
;
'Li S.'
;
Uppsala University
Department of Physics
Uppsala
Sweden
;
'Ahuja R.'
;
Uppsala University
Department of Physics
Uppsala
Sweden
;
'Johansson B.'
;
Uppsala University
Department of Physics
Uppsala
Sweden
;

# Standardized crystallographic data

_cell_length_a                           5.346
_cell_length_b                           2.886
_cell_length_c                           5.328
_cell_angle_alpha                        90
_cell_angle_beta                         116.2
_cell_angle_gamma                        90
_cell_volume                             73.8
_cell_formula_units_Z                    4
_space_group_IT_number                   15
_space_group_name_H-M_alt                'C 1 2/c 1'
loop_
 _space_group_symop_id
 _space_group_symop_operation_xyz
 1 'x, y, z'
 2 '-x, -y, -z'
 3 '-x, y, 1/2-z'
 4 'x, -y, 1/2+z'
 5 '1/2+x, 1/2+y, z'
 6 '1/2-x, 1/2-y, -z'
 7 '1/2-x, 1/2+y, 1/2-z'
 8 '1/2+x, 1/2-y, 1/2+z'
loop_
 _atom_type_symbol
 Cm
loop_
 _atom_site_label
 _atom_site_type_symbol
 _atom_site_symmetry_multiplicity
 _atom_site_Wyckoff_symbol
 _atom_site_fract_x
 _atom_site_fract_y
 _atom_site_fract_z
 _atom_site_occupancy
 Cm Cm 4 e 0 0.1753 0.25 1


_exptl_crystal_colour                    ?
_exptl_crystal_density_meas              ?
_exptl_crystal_density_diffrn            22.24
_cell_measurement_temperature            ?
_cell_measurement_pressure               4.5e+007
_cell_measurement_radiation              X-rays
_cell_measurement_reflns_used            ?
_diffrn_ambient_pressure                 4.5e+007
_diffrn_ambient_temperature              ?
_diffrn_measurement_device               ?
_diffrn_measurement_device_type          ?
_diffrn_radiation_type                   X-rays
_diffrn_reflns_number                    ?
_exptl_absorpt_coefficient_mu            ?
_exptl_absorpt_correction_type           ?
_computing_structure_solution            'starting values from the literature'
_refine_ls_number_parameters             ?
_refine_ls_number_reflns                 ?
_refine_ls_R_factor_gt                   ?
_refine_ls_wR_factor_gt                  ?
_pd_proc_ls_proof_R_factor               ?
_pd_proc_ls_proof_wR_factor              ?
_refine_ls_R_I_factor                    0.056

# End of data set 1521019


