##############################################################################
#                                                                            #
# Cm-H-O           # Cm[OH]3                                       #  383895 #
#                                                                            #
##############################################################################
#                                                                            #
#                           Pearson's Crystal Data                           #
#      Crystal Structure Database for Inorganic Compounds (on DVD)           #
#                              Release 2017/18                               #
#                  Editors: Pierre Villars and Karin Cenzual                 #
#                                                                            #
#   Copyright (c) ASM International & Material Phases Data System (MPDS),    #
# Switzerland & National Institute for Materials Science (NIMS), Japan, 2017 #
#                   All rights reserved. Version 2017.08                     #
#                                                                            #
#   This copy of Pearson's Crystal Data is licensed to:                      #
#   University of Alberta, Chemistry Department, 1-5 Installations License         #
#                                                                            #
##############################################################################

data_383895
_audit_creation_date                     2017-12-01
_audit_creation_method
;
Pearson's Crystal Data browser
;
#_database_code_PCD                      383895

# Entry summary

_chemical_formula_structural             'Cm [O H]~3~'
_chemical_formula_sum                    'Cm H3 O3'
_chemical_name_mineral                   ?
_chemical_compound_source                ?
_chemical_name_structure_type            UCl~3~,hP8,176
_chemical_formula_weight                 298.0

# Bibliographic data

_publ_section_title
;
Lattice parameters of ^244^Cm(OH)~3~ and the effect of self-irradiation on crystalline ^241^Am(OH)~3~ and ^244^Cm(OH)~3~
;
_journal_coden_ASTM                      JINCAO
_journal_name_full                       'J. Inorg. Nucl. Chem.'
_journal_year                            1977
_journal_volume                          39
_journal_page_first                      843
_journal_page_last                       847
_journal_language                        English
loop_
 _publ_author_name
 _publ_author_address
'Haire R.G.'
;
Oak Ridge National Laboratory
Oak Ridge
U.S.A. Tennessee
;
'Lloyd M.H.'
;
Oak Ridge National Laboratory
Oak Ridge
U.S.A. Tennessee
;
'Milligan W.O.'
;
Texas Waco Baylor University
Department of Chemistry
Waco
U.S.A. Texas
;
'Beasley M.L.'
;
Texas Waco Baylor University
Department of Chemistry
Waco
U.S.A. Texas
;

# Standardized crystallographic data

_cell_length_a                           6.391
_cell_length_b                           6.391
_cell_length_c                           3.712
_cell_angle_alpha                        90
_cell_angle_beta                         90
_cell_angle_gamma                        120
_cell_volume                             131.3
_cell_formula_units_Z                    2
_space_group_IT_number                   176
_space_group_name_H-M_alt                'P 63/m'
loop_
 _space_group_symop_id
 _space_group_symop_operation_xyz
 1 'x, y, z'
 2 '-x+y, -x, 1/2-z'
 3 '-x+y, -x, z'
 4 '-x, -y, -z'
 5 '-x, -y, 1/2+z'
 6 '-y, x-y, 1/2-z'
 7 '-y, x-y, z'
 8 'x, y, 1/2-z'
 9 'x-y, x, -z'
 10 'x-y, x, 1/2+z'
 11 'y, -x+y, -z'
 12 'y, -x+y, 1/2+z'

# Atomic positions taken from type-defining entry

loop_
 _atom_type_symbol
 O
 Cm
loop_
 _atom_site_label
 _atom_site_type_symbol
 _atom_site_symmetry_multiplicity
 _atom_site_Wyckoff_symbol
 _atom_site_fract_x
 _atom_site_fract_y
 _atom_site_fract_z
 _atom_site_occupancy
 O1 O 6 h 0.3866 0.085 0.25 1
 Cm1 Cm 2 c 0.333333 0.666667 0.25 1


_exptl_crystal_colour                    ?
_exptl_crystal_density_meas              ?
_exptl_crystal_density_diffrn            7.54
_cell_measurement_temperature            ?
_cell_measurement_radiation              electrons
_cell_measurement_reflns_used            ?
_diffrn_ambient_temperature              ?
_diffrn_measurement_device               film
_diffrn_measurement_device_type          ?
_diffrn_radiation_type                   ?
_diffrn_reflns_number                    ?
_exptl_absorpt_coefficient_mu            ?
_exptl_absorpt_correction_type           ?
_computing_structure_solution            ?
_refine_ls_number_parameters             ?
_refine_ls_number_reflns                 ?
_refine_ls_R_factor_gt                   ?
_refine_ls_wR_factor_gt                  ?

# End of data set 383895


