##############################################################################
#                                                                            #
# Cm-Ni            # CmNi5                                         # 1500038 #
#                                                                            #
##############################################################################
#                                                                            #
#                           Pearson's Crystal Data                           #
#      Crystal Structure Database for Inorganic Compounds (on DVD)           #
#                              Release 2017/18                               #
#                  Editors: Pierre Villars and Karin Cenzual                 #
#                                                                            #
#   Copyright (c) ASM International & Material Phases Data System (MPDS),    #
# Switzerland & National Institute for Materials Science (NIMS), Japan, 2017 #
#                   All rights reserved. Version 2017.08                     #
#                                                                            #
#   This copy of Pearson's Crystal Data is licensed to:                      #
#   University of Alberta, Chemistry Department, 1-5 Installations License         #
#                                                                            #
##############################################################################

data_1500038
_audit_creation_date                     2017-12-05
_audit_creation_method
;
Pearson's Crystal Data browser
;
#_database_code_PCD                      1500038

# Entry summary

_chemical_formula_structural             'Cm Ni~5~'
_chemical_formula_sum                    'Cm Ni5'
_chemical_name_mineral                   ?
_chemical_compound_source                ?
_chemical_name_structure_type            CaCu~5~,hP6,191
_chemical_formula_weight                 540.5

# Bibliographic data

_publ_section_title
;
Synthesis and Study of Binary Compounds of Actinides and Lanthanides. XX. Intermetallic Compounds of Curium and Nickel
;
_journal_coden_ASTM                      RDIOEO
_journal_name_full                       'Radiochemistry (Moscow)'
_journal_year                            1995
_journal_volume                          37
_journal_page_first                      292
_journal_page_last                       296
_journal_language                        English
loop_
 _publ_author_name
 _publ_author_address
'Radchenko V.M.'
;
Russian Academy of Sciences
Research Institute of Atomic Reactors
Dimitrovgrad
Russia
;
'Seleznev A.G.'
;
Russian Academy of Sciences
Research Institute of Atomic Reactors
Dimitrovgrad
Russia
;
'Ryabinin M.A.'
;
Russian Academy of Sciences
Research Institute of Atomic Reactors
Dimitrovgrad
Russia
;
'Droznik R.R.'
;
Russian Academy of Sciences
Research Institute of Atomic Reactors
Dimitrovgrad
Russia
;
'Vasil'ev V.Y.'
;
Russian Academy of Sciences
Research Institute of Atomic Reactors
Dimitrovgrad
Russia
;

# Standardized crystallographic data

_cell_length_a                           4.8713
_cell_length_b                           4.8713
_cell_length_c                           4.0142
_cell_angle_alpha                        90
_cell_angle_beta                         90
_cell_angle_gamma                        120
_cell_volume                             82.5
_cell_formula_units_Z                    1
_space_group_IT_number                   191
_space_group_name_H-M_alt                'P 6/m m m'
loop_
 _space_group_symop_id
 _space_group_symop_operation_xyz
 1 'x, y, z'
 2 '-x+y, -x, -z'
 3 '-x+y, -x, z'
 4 '-x+y, y, -z'
 5 '-x+y, y, z'
 6 '-x, -x+y, -z'
 7 '-x, -x+y, z'
 8 '-x, -y, -z'
 9 '-x, -y, z'
 10 '-y, -x, -z'
 11 '-y, -x, z'
 12 '-y, x-y, -z'
 13 '-y, x-y, z'
 14 'x, x-y, -z'
 15 'x, x-y, z'
 16 'x, y, -z'
 17 'x-y, -y, -z'
 18 'x-y, -y, z'
 19 'x-y, x, -z'
 20 'x-y, x, z'
 21 'y, -x+y, -z'
 22 'y, -x+y, z'
 23 'y, x, -z'
 24 'y, x, z'
loop_
 _atom_type_symbol
 Ni
 Cm
loop_
 _atom_site_label
 _atom_site_type_symbol
 _atom_site_symmetry_multiplicity
 _atom_site_Wyckoff_symbol
 _atom_site_fract_x
 _atom_site_fract_y
 _atom_site_fract_z
 _atom_site_occupancy
 Ni1 Ni 3 g 0.5 0 0.5 1
 Ni2 Ni 2 c 0.333333 0.666667 0 1
 Cm Cm 1 a 0 0 0 1


_exptl_crystal_colour                    ?
_exptl_crystal_density_meas              ?
_exptl_crystal_density_diffrn            10.88
_cell_measurement_temperature            ?
_cell_measurement_radiation              'X-rays, Cu Ka'
_cell_measurement_reflns_used            25
_diffrn_ambient_temperature              ?
_diffrn_measurement_device               'automatic diffractometer'
_diffrn_measurement_device_type          ?
_diffrn_radiation_type                   ?
_diffrn_reflns_number                    ?
_exptl_absorpt_coefficient_mu            ?
_exptl_absorpt_correction_type           ?
_computing_structure_solution            ?
_refine_ls_number_parameters             ?
_refine_ls_number_reflns                 ?
_refine_ls_R_factor_gt                   ?
_refine_ls_wR_factor_gt                  ?

# Published diffraction lines

loop_
 _refln_index_h
 _refln_index_k
 _refln_index_l
 _refln_d_spacing
 _refln_intensity_meas
 1 0 0 210.4 7
 0 0 1 220.3 5.5
 1 0 1 308 8
 1 1 0 369 8
 2 0 0 428.2 8
 1 1 1 434.2 8
 0 0 2 451.2 2
 2 0 1 487.8 3.5
 1 0 2 502.1 2
 2 1 0 578 2.5
 1 1 2 597.3 7.5
 2 1 1 627.1 8
 2 0 2 640.8 7
 3 0 0 664.1 4.5
 3 0 1 710.1 8
 2 2 0 784.7 4.5
 1 1 3 819.7 2.5
 3 1 0 823 6.5
 3 0 2 839.5 5.5
 3 1 1 866 7
 2 2 2 954.4 5
 3 1 2 993 2
 3 2 1 1097.8 4.5
 4 0 2 1111.3 4.5
 4 1 1 1184 5

# End of data set 1500038


