##############################################################################
#                                                                            #
# Co-O-V           # Co2[V2O7]                                     #  543605 #
#                                                                            #
##############################################################################
#                                                                            #
#                           Pearson's Crystal Data                           #
#      Crystal Structure Database for Inorganic Compounds (on DVD)           #
#                              Release 2017/18                               #
#                  Editors: Pierre Villars and Karin Cenzual                 #
#                                                                            #
#   Copyright (c) ASM International & Material Phases Data System (MPDS),    #
# Switzerland & National Institute for Materials Science (NIMS), Japan, 2017 #
#                   All rights reserved. Version 2017.08                     #
#                                                                            #
#   This copy of Pearson's Crystal Data is licensed to:                      #
#   University of Alberta, Chemistry Department, 1-5 Installations License         #
#                                                                            #
##############################################################################

data_543605
_audit_creation_date                     2017-12-04
_audit_creation_method
;
Pearson's Crystal Data browser
;
#_database_code_PCD                      543605

# Entry summary

_chemical_formula_structural             'Co~2~ [V~2~ O~7~]'
_chemical_formula_sum                    'Co2 O7 V2'
_chemical_name_mineral                   ?
_chemical_compound_source                ?
_chemical_name_structure_type            Co~2~[V~2~O~7~],mP44,14
_chemical_formula_weight                 331.7

# Bibliographic data

_publ_section_title
;
A Powder X-ray Diffraction Study of Mn~2~V~2~O~7~-M~2~V~2~O~7~ Systems, (M= Ba, Sr, Ca, Co, Zn, Cu, or Ni)
;
_journal_coden_ASTM                      RJICAQ
_journal_name_full                       'Russ. J. Inorg. Chem.'
_journal_year                            1993
_journal_volume                          38
_journal_page_first                      1133
_journal_page_last                       1136
_journal_language                        English
loop_
 _publ_author_name
 _publ_author_address
'Zhuravlev V.D.'
;
Russian Academy of Sciences
Institute of Solid State Chemistry
Ekaterinburg
Russia
;
'Velikodnyi Y.A.'
;
Kovens Research and Production Enterprise
Moscow
Russia
;
'Surat L.L.'
;
Kovens Research and Production Enterprise
Moscow
Russia
;

# Standardized crystallographic data

_cell_length_a                           6.591
_cell_length_b                           8.375
_cell_length_c                           9.474
_cell_angle_alpha                        90
_cell_angle_beta                         100.2
_cell_angle_gamma                        90
_cell_volume                             514.7
_cell_formula_units_Z                    4
_space_group_IT_number                   14
_space_group_name_H-M_alt                'P 1 21/c 1'
loop_
 _space_group_symop_id
 _space_group_symop_operation_xyz
 1 'x, y, z'
 2 '-x, -y, -z'
 3 '-x, 1/2+y, 1/2-z'
 4 'x, 1/2-y, 1/2+z'

# Atomic positions taken from type-defining entry

loop_
 _atom_type_symbol
 O
 Co
 V
loop_
 _atom_site_label
 _atom_site_type_symbol
 _atom_site_symmetry_multiplicity
 _atom_site_Wyckoff_symbol
 _atom_site_fract_x
 _atom_site_fract_y
 _atom_site_fract_z
 _atom_site_occupancy
 O1 O 4 e 0.0709 0.1277 0.1028 1
 O2 O 4 e 0.1049 0.6308 0.1233 1
 Co1 Co 4 e 0.1392 0.7412 0.46924 1
 V1 V 4 e 0.1923 0.1216 0.31927 1
 O3 O 4 e 0.2448 0.3603 0.316 1
 Co2 Co 4 e 0.3059 0.4814 0.18565 1
 O4 O 4 e 0.3291 0.3702 0.0398 1
 V2 V 4 e 0.353 0.1215 0.036 1
 O5 O 4 e 0.3532 0.6219 0.5075 1
 O6 O 4 e 0.4725 0.082 0.2533 1
 O7 O 4 e 0.8206 0.373 0.1511 1


_exptl_crystal_colour                    ?
_exptl_crystal_density_meas              ?
_exptl_crystal_density_diffrn            4.28
_cell_measurement_temperature            ?
_cell_measurement_radiation              'X-rays, Cu Ka'
_cell_measurement_reflns_used            ?
_diffrn_ambient_temperature              ?
_diffrn_measurement_device               'automatic diffractometer'
_diffrn_measurement_device_type          ?
_diffrn_radiation_type                   ?
_diffrn_reflns_number                    ?
_exptl_absorpt_coefficient_mu            ?
_exptl_absorpt_correction_type           ?
_computing_structure_solution            ?
_refine_ls_number_parameters             ?
_refine_ls_number_reflns                 ?
_refine_ls_R_factor_gt                   ?
_refine_ls_wR_factor_gt                  ?

# End of data set 543605


