##############################################################################
#                                                                            #
# Co-O-P           # Co2[P2O7] rt                                  #  556400 #
#                                                                            #
##############################################################################
#                                                                            #
#                           Pearson's Crystal Data                           #
#      Crystal Structure Database for Inorganic Compounds (on DVD)           #
#                              Release 2017/18                               #
#                  Editors: Pierre Villars and Karin Cenzual                 #
#                                                                            #
#   Copyright (c) ASM International & Material Phases Data System (MPDS),    #
# Switzerland & National Institute for Materials Science (NIMS), Japan, 2017 #
#                   All rights reserved. Version 2017.08                     #
#                                                                            #
#   This copy of Pearson's Crystal Data is licensed to:                      #
#   University of Alberta, Chemistry Department, 1-5 Installations License         #
#                                                                            #
##############################################################################

data_556400
_audit_creation_date                     2017-12-04
_audit_creation_method
;
Pearson's Crystal Data browser
;
#_database_code_PCD                      556400

# Entry summary

_chemical_formula_structural             'Co~2~ [P~2~ O~7~]'
_chemical_formula_sum                    'Co2 O7 P2'
_chemical_name_mineral                   ?
_chemical_compound_source                ?
_chemical_name_structure_type            Mg~2~[P~2~O~7~],mP44,14
_chemical_formula_weight                 291.8

# Bibliographic data

_publ_section_title
'The Crystal Structures of Some Divalent Metal Ion Phosphates'                
_journal_coden_ASTM                      BSCFAS
_journal_name_full                       'Bull. Soc. Chim. Fr.'
_journal_year                            1968
_journal_volume                          ?
_journal_page_first                      1744
_journal_page_last                       1747
_journal_language                        English
loop_
 _publ_author_name
 _publ_author_address
'Calvo C.'
;
Hamilton McMaster University
Department of Physics
Hamilton
Canada
;

# Standardized crystallographic data

_cell_length_a                           7.0181
_cell_length_b                           8.318
_cell_length_c                           8.983
_cell_angle_alpha                        90
_cell_angle_beta                         114.028
_cell_angle_gamma                        90
_cell_volume                             479
_cell_formula_units_Z                    4
_space_group_IT_number                   14
_space_group_name_H-M_alt                'P 1 21/c 1'
loop_
 _space_group_symop_id
 _space_group_symop_operation_xyz
 1 'x, y, z'
 2 '-x, -y, -z'
 3 '-x, 1/2+y, 1/2-z'
 4 'x, 1/2-y, 1/2+z'

# Atomic positions taken from type-defining entry

loop_
 _atom_type_symbol
 O
 P
 Co
loop_
 _atom_site_label
 _atom_site_type_symbol
 _atom_site_symmetry_multiplicity
 _atom_site_Wyckoff_symbol
 _atom_site_fract_x
 _atom_site_fract_y
 _atom_site_fract_z
 _atom_site_occupancy
 O1 O 4 e 0.0222 0.0989 0.1191 1
 P1 P 4 e 0.056 0.2329 0.2391 1
 O2 O 4 e 0.1084 0.3867 0.1832 1
 O3 O 4 e 0.1236 0.7418 0.2048 1
 Co1 Co 4 e 0.2338 0.5699 0.6107 1
 O4 O 4 e 0.2514 0.1744 0.3996 1
 Co2 Co 4 e 0.2986 0.5598 0.1726 1
 O5 O 4 e 0.449 0.1111 0.1038 1
 P2 P 4 e 0.4688 0.2729 0.0324 1
 O6 O 4 e 0.5168 0.409 0.1555 1
 O7 O 4 e 0.625 0.2364 0.4528 1


_exptl_crystal_colour                    ?
_exptl_crystal_density_meas              ?
_exptl_crystal_density_diffrn            4.05
_cell_measurement_temperature            ?
_cell_measurement_radiation              X-rays
_cell_measurement_reflns_used            ?
_diffrn_ambient_temperature              ?
_diffrn_measurement_device               film
_diffrn_measurement_device_type          ?
_diffrn_radiation_type                   ?
_diffrn_reflns_number                    ?
_exptl_absorpt_coefficient_mu            ?
_exptl_absorpt_correction_type           ?
_computing_structure_solution            ?
_refine_ls_number_parameters             ?
_refine_ls_number_reflns                 ?
_refine_ls_R_factor_gt                   ?
_refine_ls_wR_factor_gt                  ?

# End of data set 556400


