##############################################################################
#                                                                            #
# Co-O-P           # Co2[P2O7] ht                                  # 1501712 #
#                                                                            #
##############################################################################
#                                                                            #
#                           Pearson's Crystal Data                           #
#      Crystal Structure Database for Inorganic Compounds (on DVD)           #
#                              Release 2017/18                               #
#                  Editors: Pierre Villars and Karin Cenzual                 #
#                                                                            #
#   Copyright (c) ASM International & Material Phases Data System (MPDS),    #
# Switzerland & National Institute for Materials Science (NIMS), Japan, 2017 #
#                   All rights reserved. Version 2017.08                     #
#                                                                            #
#   This copy of Pearson's Crystal Data is licensed to:                      #
#   University of Alberta, Chemistry Department, 1-5 Installations License         #
#                                                                            #
##############################################################################

data_1501712
_audit_creation_date                     2017-12-05
_audit_creation_method
;
Pearson's Crystal Data browser
;
#_database_code_PCD                      1501712

# Entry summary

_chemical_formula_structural             'Co~2~ [P~2~ O~7~]'
_chemical_formula_sum                    'Co2 O7 P2'
_chemical_name_mineral                   ?
_chemical_compound_source                ?
_chemical_name_structure_type            Sc~2~[Si~2~O~7~],mS22,12
_chemical_formula_weight                 291.8

# Bibliographic data

_publ_section_title                      '\b-Dicobalt Pyrophosphate'
_journal_coden_ASTM                      ACSCEE
_journal_name_full                       'Acta Crystallogr. C'
_journal_year                            1994
_journal_volume                          50
_journal_page_first                      482
_journal_page_last                       484
_journal_language                        English
loop_
 _publ_author_name
 _publ_author_address
'El Belghitti A.A.'
;
Rabat Mohammed V University
Laboratoire de Chimie du Solide Appliqu\'ee
Rabat
Morocco
;
'Boukhari A.'
;
Rabat Mohammed V University
Laboratoire de Chimie du Solide Appliqu\'ee
Rabat
Morocco
;
'Holt E.M.'
;
Oklahoma Stillwater University
Department of Chemistry
Stillwater
U.S.A. Oklahoma
;

# Standardized crystallographic data

_cell_length_a                           6.64
_cell_length_b                           8.526
_cell_length_c                           4.524
_cell_angle_alpha                        90
_cell_angle_beta                         102.59
_cell_angle_gamma                        90
_cell_volume                             250
_cell_formula_units_Z                    2
_space_group_IT_number                   12
_space_group_name_H-M_alt                'C 1 2/m 1'
loop_
 _space_group_symop_id
 _space_group_symop_operation_xyz
 1 'x, y, z'
 2 '-x, -y, -z'
 3 '-x, y, -z'
 4 'x, -y, z'
 5 '1/2+x, 1/2+y, z'
 6 '1/2-x, 1/2-y, -z'
 7 '1/2-x, 1/2+y, -z'
 8 '1/2+x, 1/2-y, z'
loop_
 _atom_type_symbol
 O
 P
 Co
loop_
 _atom_site_label
 _atom_site_type_symbol
 _atom_site_symmetry_multiplicity
 _atom_site_Wyckoff_symbol
 _atom_site_fract_x
 _atom_site_fract_y
 _atom_site_fract_z
 _atom_site_occupancy
 O12 O 8 j 0.225 0.148 0.228 1
 P1 P 4 i 0.213 0 0.412 1
 O11 O 4 i 0.631 0 0.286 1
 Co1 Co 4 g 0 0.3074 0 1
 O14 O 2 c 0 0 0.5 1


_exptl_crystal_colour                    'blue purple'
_exptl_crystal_density_meas              ?
_exptl_crystal_density_diffrn            3.88
_cell_measurement_temperature            298
_cell_measurement_radiation              'X-rays, Mo Ka'
_cell_measurement_wavelength             0.71069
_cell_measurement_reflns_used            15
_diffrn_ambient_temperature              298
_diffrn_measurement_device               'automatic diffractometer'
_diffrn_measurement_device_type          'Syntex P3'
_diffrn_radiation_type                   'X-rays, Mo Ka'
_diffrn_radiation_wavelength             0.71069
_diffrn_reflns_number                    382
_exptl_absorpt_coefficient_mu            7.239
_exptl_absorpt_correction_type           empirical
_computing_structure_solution            ?
_refine_ls_number_parameters             31
_refine_ls_number_reflns                 254
_refine_ls_R_factor_gt                   0.057
_refine_ls_wR_factor_gt                  0.073

# End of data set 1501712


