##############################################################################
#                                                                            #
# As-Co            # Co2As ht                                      #  530082 #
#                                                                            #
##############################################################################
#                                                                            #
#                           Pearson's Crystal Data                           #
#      Crystal Structure Database for Inorganic Compounds (on DVD)           #
#                              Release 2017/18                               #
#                  Editors: Pierre Villars and Karin Cenzual                 #
#                                                                            #
#   Copyright (c) ASM International & Material Phases Data System (MPDS),    #
# Switzerland & National Institute for Materials Science (NIMS), Japan, 2017 #
#                   All rights reserved. Version 2017.08                     #
#                                                                            #
#   This copy of Pearson's Crystal Data is licensed to:                      #
#   University of Alberta, Chemistry Department, 1-5 Installations License         #
#                                                                            #
##############################################################################

data_530082
_audit_creation_date                     2017-12-01
_audit_creation_method
;
Pearson's Crystal Data browser
;
#_database_code_PCD                      530082

# Entry summary

_chemical_formula_structural             'Co~2~ As'
_chemical_formula_sum                    'As Co2'
_chemical_name_mineral                   ?
_chemical_compound_source                ?
_chemical_name_structure_type            Fe~2~P,hP9,189
_chemical_formula_weight                 192.8

# Bibliographic data

_publ_section_title
'Arsenides of transition metals: The arsenides of iron and cobalt'            
_journal_coden_ASTM                      CJCHAG
_journal_name_full                       'Can. J. Chem.'
_journal_year                            1957
_journal_volume                          35
_journal_page_first                      449
_journal_page_last                       457
_journal_language                        English
loop_
 _publ_author_name
 _publ_author_address
'Heyding R.D.'
;
National Research Council of Canada (NRCC)
Division of Applied Chemistry
Ottawa
Canada
;
'Calvert L.D.'
;
National Research Council of Canada (NRCC)
Division of Applied Chemistry
Ottawa
Canada
;

# Standardized crystallographic data

_cell_length_a                           6.066
_cell_length_b                           6.066
_cell_length_c                           3.557
_cell_angle_alpha                        90
_cell_angle_beta                         90
_cell_angle_gamma                        120
_cell_volume                             113.35
_cell_formula_units_Z                    3
_space_group_IT_number                   189
_space_group_name_H-M_alt                'P -6 2 m'
loop_
 _space_group_symop_id
 _space_group_symop_operation_xyz
 1 'x, y, z'
 2 '-x+y, -x, -z'
 3 '-x+y, -x, z'
 4 '-x, -x+y, -z'
 5 '-x, -x+y, z'
 6 '-y, x-y, -z'
 7 '-y, x-y, z'
 8 'x, y, -z'
 9 'x-y, -y, -z'
 10 'x-y, -y, z'
 11 'y, x, -z'
 12 'y, x, z'

# Atomic positions taken from type-defining entry

loop_
 _atom_type_symbol
 Co
 As
loop_
 _atom_site_label
 _atom_site_type_symbol
 _atom_site_symmetry_multiplicity
 _atom_site_Wyckoff_symbol
 _atom_site_fract_x
 _atom_site_fract_y
 _atom_site_fract_z
 _atom_site_occupancy
 Co1 Co 3 g 0.25683 0 0.5 1
 Co2 Co 3 f 0.59461 0 0 1
 As1 As 2 d 0.333333 0.666667 0.5 1
 As2 As 1 a 0 0 0 1


_exptl_crystal_colour                    ?
_exptl_crystal_density_meas              ?
_exptl_crystal_density_diffrn            8.47
_cell_measurement_temperature            748
_cell_measurement_radiation              'X-rays, Cu Ka1'
_cell_measurement_wavelength             1.5405
_pd_proc_wavelength                      1.5405
_cell_measurement_reflns_used            ?
_diffrn_ambient_temperature              ?
_diffrn_measurement_device               'Unicam film'
_diffrn_measurement_device_type          ?
_diffrn_radiation_type                   ?
_diffrn_reflns_number                    ?
_exptl_absorpt_coefficient_mu            ?
_exptl_absorpt_correction_type           ?
_computing_structure_solution            ?
_refine_ls_number_parameters             ?
_refine_ls_number_reflns                 ?
_refine_ls_R_factor_gt                   ?
_refine_ls_wR_factor_gt                  ?

# Published diffraction lines

loop_
 _refln_index_h
 _refln_index_k
 _refln_index_l
 _refln_d_spacing
 _refln_intensity_meas
 1 1 0 30.2 20
 1 0 1 29.3 5
 1 1 1 23 90
 2 0 1 21.1 100
 2 1 0 19.8 80
 0 0 2 17.7 20
 3 0 0 17.5 80
 2 1 1 17.3 80
 2 2 0 15.2 30
 3 1 0 14.5 70
 3 1 1 13.46 10
 2 1 2 13.21 20
 3 0 2 12.46 40
 4 1 0 11.45 20
 3 2 1 11.41 60
 4 1 2 9.631 10
 4 2 1 9.567 5
 5 1 1 9.123 10
 3 2 3 8.455 2

# End of data set 530082


