##############################################################################
#                                                                            #
# Co-H-O-P         # Co3[PO4]2[H2O]8                               #  544279 #
#                                                                            #
##############################################################################
#                                                                            #
#                           Pearson's Crystal Data                           #
#      Crystal Structure Database for Inorganic Compounds (on DVD)           #
#                              Release 2017/18                               #
#                  Editors: Pierre Villars and Karin Cenzual                 #
#                                                                            #
#   Copyright (c) ASM International & Material Phases Data System (MPDS),    #
# Switzerland & National Institute for Materials Science (NIMS), Japan, 2017 #
#                   All rights reserved. Version 2017.08                     #
#                                                                            #
#   This copy of Pearson's Crystal Data is licensed to:                      #
#   University of Alberta, Chemistry Department, 1-5 Installations License         #
#                                                                            #
##############################################################################

data_544279
_audit_creation_date                     2017-12-04
_audit_creation_method
;
Pearson's Crystal Data browser
;
#_database_code_PCD                      544279

# Entry summary

_chemical_formula_structural             'Co~3~ [P O~4~]~2~ [H~2~ O]~8~'
_chemical_formula_sum                    'Co3 H16 O16 P2'
_chemical_name_mineral                   ?
_chemical_compound_source                ?
_chemical_name_structure_type            Fe~3~[PO~4~]~2~[H~2~O]~8~,mS42,12
_chemical_formula_weight                 510.9

# Bibliographic data

_publ_section_title
;
An X-ray diffraction study of double normal cobalt and magnesium phosphate octahydrates
;
_journal_coden_ASTM                      RJICAQ
_journal_name_full                       'Russ. J. Inorg. Chem.'
_journal_year                            1989
_journal_volume                          34
_journal_page_first                      448
_journal_page_last                       450
_journal_language                        English
loop_
 _publ_author_name
 _publ_author_address
'Rudyi I.V.'
;
Ukrainian Academy of Sciences
Kiev
Ukraine
;
'Shchegrov L.N.'
;
Ukrainian Academy of Sciences
Kiev
Ukraine
;
'Antraptseva N.M.'
;
Ukrainian Academy of Sciences
Kiev
Ukraine
;
'Antishko A.N.'
;
Ukrainian Academy of Sciences
Kiev
Ukraine
;

# Standardized crystallographic data

_cell_length_a                           10.061
_cell_length_b                           13.309
_cell_length_c                           4.689
_cell_angle_alpha                        90
_cell_angle_beta                         104.97
_cell_angle_gamma                        90
_cell_volume                             606.6
_cell_formula_units_Z                    2
_space_group_IT_number                   12
_space_group_name_H-M_alt                'C 1 2/m 1'
loop_
 _space_group_symop_id
 _space_group_symop_operation_xyz
 1 'x, y, z'
 2 '-x, -y, -z'
 3 '-x, y, -z'
 4 'x, -y, z'
 5 '1/2+x, 1/2+y, z'
 6 '1/2-x, 1/2-y, -z'
 7 '1/2-x, 1/2+y, -z'
 8 '1/2+x, 1/2-y, z'

# Atomic positions taken from type-defining entry

loop_
 _atom_type_symbol
 O
 P
 Co
loop_
 _atom_site_label
 _atom_site_type_symbol
 _atom_site_symmetry_multiplicity
 _atom_site_Wyckoff_symbol
 _atom_site_fract_x
 _atom_site_fract_y
 _atom_site_fract_z
 _atom_site_occupancy
 O1 O 8 j 0.1048 0.2755 0.2877 1
 O2 O 8 j 0.3449 0.0955 0.2233 1
 O3 O 8 j 0.3986 0.383 0.2007 1
 O4 O 4 i 0.1578 0 0.3631 1
 P1 P 4 i 0.3143 0 0.3741 1
 O5 O 4 i 0.609 0 0.3017 1
 Co1 Co 4 g 0 0.3898 0 1
 Co2 Co 2 a 0 0 0 1


_exptl_crystal_colour                    ?
_exptl_crystal_density_meas              ?
_exptl_crystal_density_diffrn            2.80
_cell_measurement_temperature            ?
_cell_measurement_radiation              'X-rays, Fe Ka'
_cell_measurement_reflns_used            ?
_diffrn_ambient_temperature              ?
_diffrn_measurement_device               'automatic diffractometer'
_diffrn_measurement_device_type          ?
_diffrn_radiation_type                   ?
_diffrn_reflns_number                    ?
_exptl_absorpt_coefficient_mu            ?
_exptl_absorpt_correction_type           ?
_computing_structure_solution            ?
_refine_ls_number_parameters             ?
_refine_ls_number_reflns                 ?
_refine_ls_R_factor_gt                   ?
_refine_ls_wR_factor_gt                  ?

# End of data set 544279


