##############################################################################
#                                                                            #
# Co-H-O-P         # Co3[PO4]2[H2O]8                               #  304017 #
#                                                                            #
##############################################################################
#                                                                            #
#                           Pearson's Crystal Data                           #
#      Crystal Structure Database for Inorganic Compounds (on DVD)           #
#                              Release 2017/18                               #
#                  Editors: Pierre Villars and Karin Cenzual                 #
#                                                                            #
#   Copyright (c) ASM International & Material Phases Data System (MPDS),    #
# Switzerland & National Institute for Materials Science (NIMS), Japan, 2017 #
#                   All rights reserved. Version 2017.08                     #
#                                                                            #
#   This copy of Pearson's Crystal Data is licensed to:                      #
#   University of Alberta, Chemistry Department, 1-5 Installations License         #
#                                                                            #
##############################################################################

data_304017
_audit_creation_date                     2017-12-01
_audit_creation_method
;
Pearson's Crystal Data browser
;
#_database_code_PCD                      304017

# Entry summary

_chemical_formula_structural             'Co~3~ [P O~4~]~2~ [H~2~ O]~8~'
_chemical_formula_sum                    'Co3 H16 O16 P2'
_chemical_name_mineral                   ?
_chemical_compound_source                ?
_chemical_name_structure_type            Fe~3~[PO~4~]~2~[H~2~O]~8~,mS42,12
_chemical_formula_weight                 510.9

# Bibliographic data

_publ_section_title
;
Formation and Chemical Nature of Crystal Hydrates of Neutral Mixed Cobalt Manganese Phosphates
;
_journal_coden_ASTM                      RJICAQ
_journal_name_full                       'Russ. J. Inorg. Chem.'
_journal_year                            1994
_journal_volume                          39
_journal_page_first                      717
_journal_page_last                       720
_journal_language                        English
loop_
 _publ_author_name
 _publ_author_address
'Antraptseva N.M.'
;
Ukrainian Academy of Sciences
Kiev
Ukraine
;
'Shchegrov L.N.'
;
Ukrainian Academy of Sciences
Kiev
Ukraine
;
'Degtyarenko L.N.'
;
Ukrainian Academy of Sciences
Kiev
Ukraine
;

# Standardized crystallographic data

_cell_length_a                           10.015
_cell_length_b                           13.332
_cell_length_c                           4.688
_cell_angle_alpha                        90
_cell_angle_beta                         104.89
_cell_angle_gamma                        90
_cell_volume                             604.9
_cell_formula_units_Z                    2
_space_group_IT_number                   12
_space_group_name_H-M_alt                'C 1 2/m 1'
loop_
 _space_group_symop_id
 _space_group_symop_operation_xyz
 1 'x, y, z'
 2 '-x, -y, -z'
 3 '-x, y, -z'
 4 'x, -y, z'
 5 '1/2+x, 1/2+y, z'
 6 '1/2-x, 1/2-y, -z'
 7 '1/2-x, 1/2+y, -z'
 8 '1/2+x, 1/2-y, z'

# Atomic positions taken from type-defining entry

loop_
 _atom_type_symbol
 O
 P
 Co
loop_
 _atom_site_label
 _atom_site_type_symbol
 _atom_site_symmetry_multiplicity
 _atom_site_Wyckoff_symbol
 _atom_site_fract_x
 _atom_site_fract_y
 _atom_site_fract_z
 _atom_site_occupancy
 O1 O 8 j 0.1048 0.2755 0.2877 1
 O2 O 8 j 0.3449 0.0955 0.2233 1
 O3 O 8 j 0.3986 0.383 0.2007 1
 O4 O 4 i 0.1578 0 0.3631 1
 P1 P 4 i 0.3143 0 0.3741 1
 O5 O 4 i 0.609 0 0.3017 1
 Co1 Co 4 g 0 0.3898 0 1
 Co2 Co 2 a 0 0 0 1


_exptl_crystal_colour                    ?
_exptl_crystal_density_meas              ?
_exptl_crystal_density_diffrn            2.80
_cell_measurement_temperature            ?
_cell_measurement_radiation              'X-rays, Co Ka'
_cell_measurement_reflns_used            ?
_diffrn_ambient_temperature              ?
_diffrn_measurement_device               film
_diffrn_measurement_device_type          ?
_diffrn_radiation_type                   ?
_diffrn_reflns_number                    ?
_exptl_absorpt_coefficient_mu            ?
_exptl_absorpt_correction_type           ?
_computing_structure_solution            ?
_refine_ls_number_parameters             ?
_refine_ls_number_reflns                 ?
_refine_ls_R_factor_gt                   ?
_refine_ls_wR_factor_gt                  ?

# Published diffraction lines

loop_
 _refln_index_h
 _refln_index_k
 _refln_index_l
 _refln_d_spacing
 _refln_intensity_meas
 1 1 0 78.951 7.6
 0 2 0 67.405 100
 2 0 0 48.888 5.2
 0 0 1 45.615 1.6
 1 1 -1 43.638 1.0
 1 3 0 40.718 7.6
 2 0 -1 38.676 4.4
 1 1 1 36.329 0.7
 2 2 -1 33.514 0.5
 1 3 -1 32.11 9.7
 2 0 1 29.695 7.2
 2 4 0 27.676 1.3
 0 4 1 27.07 10.6
 3 3 0 26.284 2.4
 2 4 -1 25.305 7.8
 4 0 -1 24.26 3.2
 1 5 -1 23.214 5.1
 2 4 1 22.238 2.5
 1 5 1 21.869 4.0
 3 5 0 20.719 3.5
 0 6 1 20.114 1.9
 4 4 -1 19.685 0.6
 3 3 -2 19.326 3.3
 1 3 2 18.995 1.3
 1 7 0 18.901 2.7
 2 2 2 18.172 0.7
 1 5 -2 17.739 2.7
 3 5 -2 16.78 9.2
 3 1 2 16.549 1.1
 5 5 -1 15.971 0.8
 6 2 0 15.79 1.4
 2 8 -1 15.414 1.3
 2 8 1 14.614 1.1

# End of data set 304017


