##############################################################################
#                                                                            #
# Co-N             # Co3N ht                                       #  532193 #
#                                                                            #
##############################################################################
#                                                                            #
#                           Pearson's Crystal Data                           #
#      Crystal Structure Database for Inorganic Compounds (on DVD)           #
#                              Release 2017/18                               #
#                  Editors: Pierre Villars and Karin Cenzual                 #
#                                                                            #
#   Copyright (c) ASM International & Material Phases Data System (MPDS),    #
# Switzerland & National Institute for Materials Science (NIMS), Japan, 2017 #
#                   All rights reserved. Version 2017.08                     #
#                                                                            #
#   This copy of Pearson's Crystal Data is licensed to:                      #
#   University of Alberta, Chemistry Department, 1-5 Installations License         #
#                                                                            #
##############################################################################

data_532193
_audit_creation_date                     2017-12-04
_audit_creation_method
;
Pearson's Crystal Data browser
;
#_database_code_PCD                      532193

# Entry summary

_chemical_formula_structural             'Co~3~ N'
_chemical_formula_sum                    'Co3 N'
_chemical_name_mineral                   ?
_chemical_compound_source                ?
_chemical_name_structure_type            Fe~3~N,hP8,182
_chemical_formula_weight                 190.8

# Bibliographic data

_publ_section_title
;
Transformations du cobalt sous l'influence de l'azote
;
_journal_coden_ASTM                      MRMTAU
_journal_name_full                       'Mem. Sci. Rev. Metall.'
_journal_year                            1960
_journal_volume                          57
_journal_page_first                      96
_journal_page_last                       100
_journal_language                        French
loop_
 _publ_author_name
 _publ_author_address
'Terao N.'
;
Paris University
Paris
France
;

# Standardized crystallographic data

_cell_length_a                           4.606
_cell_length_b                           4.606
_cell_length_c                           4.346
_cell_angle_alpha                        90
_cell_angle_beta                         90
_cell_angle_gamma                        120
_cell_volume                             79.8
_cell_formula_units_Z                    2
_space_group_IT_number                   182
_space_group_name_H-M_alt                'P 63 2 2'
loop_
 _space_group_symop_id
 _space_group_symop_operation_xyz
 1 'x, y, z'
 2 '-x+y, -x, z'
 3 '-x+y, y, 1/2-z'
 4 '-x, -x+y, -z'
 5 '-x, -y, 1/2+z'
 6 '-y, -x, 1/2-z'
 7 '-y, x-y, z'
 8 'x, x-y, 1/2-z'
 9 'x-y, -y, -z'
 10 'x-y, x, 1/2+z'
 11 'y, -x+y, 1/2+z'
 12 'y, x, -z'

# Atomic positions taken from type-defining entry

loop_
 _atom_type_symbol
 Co
 N
loop_
 _atom_site_label
 _atom_site_type_symbol
 _atom_site_symmetry_multiplicity
 _atom_site_Wyckoff_symbol
 _atom_site_fract_x
 _atom_site_fract_y
 _atom_site_fract_z
 _atom_site_occupancy
 Co1 Co 6 g 0.3249 0 0 1
 N1 N 2 c 0.333333 0.666667 0.25 1


_exptl_crystal_colour                    ?
_exptl_crystal_density_meas              ?
_exptl_crystal_density_diffrn            7.94
_cell_measurement_temperature            ?
_cell_measurement_radiation              electrons
_cell_measurement_reflns_used            ?
_diffrn_ambient_temperature              ?
_diffrn_measurement_device               film
_diffrn_measurement_device_type          ?
_diffrn_radiation_type                   ?
_diffrn_reflns_number                    ?
_exptl_absorpt_coefficient_mu            ?
_exptl_absorpt_correction_type           ?
_computing_structure_solution            ?
_refine_ls_number_parameters             ?
_refine_ls_number_reflns                 ?
_refine_ls_R_factor_gt                   ?
_refine_ls_wR_factor_gt                  ?

# Published diffraction lines

loop_
 _refln_index_h
 _refln_index_k
 _refln_index_l
 _refln_d_spacing
 _refln_intensity_meas
 0 0 1 42.91 2
 1 0 0 39.35 2
 1 0 1 29.37 5
 1 1 0 23.01 6
 0 0 2 21.73 6
 1 1 1 20.37 7
 2 0 0 19.85 1
 1 0 2 19.09 3
 2 0 1 18.09 3
 1 1 2 15.82 7
 2 1 0 15.1 2
 2 1 1 14.26 3
 1 0 3 13.63 2
 3 0 0 13.3 6
 3 0 1 12.71 3
 1 1 3 12.27 6
 2 2 0 11.53 3
 3 0 2 11.32 5
 2 2 1 11.12 5
 0 0 4 10.87 3
 2 1 3 10.46 2
 2 2 2 10.18 3
 1 1 4 9.83 5
 2 2 3 9 5
 4 1 0 8.68 3
 4 1 1 8.53 5
 3 0 4 8.4 5
 1 1 5 8.12 5
 4 1 2 8.07 3
 2 2 4 7.89 3
 3 3 0 7.66 3
 4 1 3 7.45 5
 3 3 2 7.22 5
 1 1 6 6.91 3

# End of data set 532193


