##############################################################################
#                                                                            #
# Co-H-I-O         # Co[IO3]2[H2O]4                                #  383862 #
#                                                                            #
##############################################################################
#                                                                            #
#                           Pearson's Crystal Data                           #
#      Crystal Structure Database for Inorganic Compounds (on DVD)           #
#                              Release 2017/18                               #
#                  Editors: Pierre Villars and Karin Cenzual                 #
#                                                                            #
#   Copyright (c) ASM International & Material Phases Data System (MPDS),    #
# Switzerland & National Institute for Materials Science (NIMS), Japan, 2017 #
#                   All rights reserved. Version 2017.08                     #
#                                                                            #
#   This copy of Pearson's Crystal Data is licensed to:                      #
#   University of Alberta, Chemistry Department, 1-5 Installations License         #
#                                                                            #
##############################################################################

data_383862
_audit_creation_date                     2017-12-01
_audit_creation_method
;
Pearson's Crystal Data browser
;
#_database_code_PCD                      383862

# Entry summary

_chemical_formula_structural             'Co [I O~3~]~2~ [H~2~ O]~4~'
_chemical_formula_sum                    'Co H8 I2 O10'
_chemical_name_mineral                   ?
_chemical_compound_source                ?
_chemical_name_structure_type            Ni[IO~3~]~2~[H~2~O]~4~,mP26,14
_chemical_formula_weight                 480.8

# Bibliographic data

_publ_section_title
'Investigations on hydrated iodates of Ni and Co(II). Crystal structures'     
_journal_coden_ASTM                      JINCAO
_journal_name_full                       'J. Inorg. Nucl. Chem.'
_journal_year                            1973
_journal_volume                          35
_journal_page_first                      3183
_journal_page_last                       3189
_journal_language                        English
loop_
 _publ_author_name
 _publ_author_address
'Elemans J.B.A.A.'
;
Netherlands Reactor Center
Petten
Netherlands
;
'Verschoor G.C.'
;
Leiden University
Department of Chemistry
Leiden
Netherlands
;

# Standardized crystallographic data

_cell_length_a                           8.331
_cell_length_b                           6.547
_cell_length_c                           8.488
_cell_angle_alpha                        90
_cell_angle_beta                         99.78
_cell_angle_gamma                        90
_cell_volume                             456.2
_cell_formula_units_Z                    2
_space_group_IT_number                   14
_space_group_name_H-M_alt                'P 1 21/c 1'
loop_
 _space_group_symop_id
 _space_group_symop_operation_xyz
 1 'x, y, z'
 2 '-x, -y, -z'
 3 '-x, 1/2+y, 1/2-z'
 4 'x, 1/2-y, 1/2+z'

# Atomic positions taken from type-defining entry

loop_
 _atom_type_symbol
 O
 I
 Co
loop_
 _atom_site_label
 _atom_site_type_symbol
 _atom_site_symmetry_multiplicity
 _atom_site_Wyckoff_symbol
 _atom_site_fract_x
 _atom_site_fract_y
 _atom_site_fract_z
 _atom_site_occupancy
 O1 O 4 e 0.0644 0.4187 0.2917 1
 O2 O 4 e 0.1151 0.7768 0.4813 1
 O3 O 4 e 0.2325 0.1029 0.1062 1
 O4 O 4 e 0.3366 0.0687 0.4451 1
 I1 I 4 e 0.33656 0.6828 0.03305 1
 O5 O 4 e 0.6518 0.1201 0.26 1
 Co1 Co 2 a 0 0 0 1


_exptl_crystal_colour                    ?
_exptl_crystal_density_meas              3.52
_exptl_crystal_density_diffrn            3.50
_cell_measurement_temperature            ?
_cell_measurement_radiation              'X-rays, Cu Ka'
_cell_measurement_reflns_used            ?
_diffrn_ambient_temperature              ?
_diffrn_measurement_device               'automatic diffractometer'
_diffrn_measurement_device_type          ?
_diffrn_radiation_type                   ?
_diffrn_reflns_number                    ?
_exptl_absorpt_coefficient_mu            ?
_exptl_absorpt_correction_type           ?
_computing_structure_solution            ?
_refine_ls_number_parameters             ?
_refine_ls_number_reflns                 ?
_refine_ls_R_factor_gt                   ?
_refine_ls_wR_factor_gt                  ?

# End of data set 383862


