##############################################################################
#                                                                            #
# Co-Mo-O          # Co[MoO4] rt                                   #  312171 #
#                                                                            #
##############################################################################
#                                                                            #
#                           Pearson's Crystal Data                           #
#      Crystal Structure Database for Inorganic Compounds (on DVD)           #
#                              Release 2017/18                               #
#                  Editors: Pierre Villars and Karin Cenzual                 #
#                                                                            #
#   Copyright (c) ASM International & Material Phases Data System (MPDS),    #
# Switzerland & National Institute for Materials Science (NIMS), Japan, 2017 #
#                   All rights reserved. Version 2017.08                     #
#                                                                            #
#   This copy of Pearson's Crystal Data is licensed to:                      #
#   University of Alberta, Chemistry Department, 1-5 Installations License         #
#                                                                            #
##############################################################################

data_312171
_audit_creation_date                     2017-12-01
_audit_creation_method
;
Pearson's Crystal Data browser
;
#_database_code_PCD                      312171

# Entry summary

_chemical_formula_structural             'Co [Mo O~4~]'
_chemical_formula_sum                    'Co Mo O4'
_chemical_name_mineral                   ?
_chemical_compound_source                ?
_chemical_name_structure_type            Co[MoO~4~],mS48,12
_chemical_formula_weight                 218.9

# Bibliographic data

_publ_section_title
'Magnetic structures of \a-FeMoO~4~ and \a-CoMoO~4~'                          
_journal_coden_ASTM                      JMMMDC
_journal_name_full                       'J. Magn. Magn. Mater.'
_journal_year                            1994
_journal_volume                          135
_journal_page_first                      355
_journal_page_last                       360
_journal_language                        English
loop_
 _publ_author_name
 _publ_author_address
'Ehrenberg H.'
;
Darmstadt University of Technology
Institut f\"ur Materialwissenschaften
Darmstadt
Germany
;
'Wltschek G.M.'
;
Darmstadt University of Technology
Institut f\"ur Materialwissenschaften
Darmstadt
Germany
;
'Trouw F.'
;
Argonne National Laboratory
Argonne
U.S.A. Illinois
;
'Kroener T.'
;
Gesellschaft f\"ur Kernforschung
Institut f\"ur Technische Physik
Karlsruhe
Germany
;
'Weitzel H.'
;
Darmstadt University of Technology
Institut f\"ur Materialwissenschaften
Darmstadt
Germany
;
'Fuess H.'
;
Darmstadt University of Technology
Institut f\"ur Materialwissenschaften
Darmstadt
Germany
;

# Standardized crystallographic data

_cell_length_a                           9.7068
_cell_length_b                           8.8431
_cell_length_c                           7.6774
_cell_angle_alpha                        90
_cell_angle_beta                         114.16
_cell_angle_gamma                        90
_cell_volume                             601.3
_cell_formula_units_Z                    8
_space_group_IT_number                   12
_space_group_name_H-M_alt                'C 1 2/m 1'
loop_
 _space_group_symop_id
 _space_group_symop_operation_xyz
 1 'x, y, z'
 2 '-x, -y, -z'
 3 '-x, y, -z'
 4 'x, -y, z'
 5 '1/2+x, 1/2+y, z'
 6 '1/2-x, 1/2-y, -z'
 7 '1/2-x, 1/2+y, -z'
 8 '1/2+x, 1/2-y, z'
loop_
 _atom_type_symbol
 O
 Mo
 Co
loop_
 _atom_site_label
 _atom_site_type_symbol
 _atom_site_symmetry_multiplicity
 _atom_site_Wyckoff_symbol
 _atom_site_fract_x
 _atom_site_fract_y
 _atom_site_fract_z
 _atom_site_occupancy
 O(1) O 8 j 0.006 0.1456 0.2418 1
 O(2) O 8 j 0.1533 0.3354 0.0768 1
 O(3) O 8 j 0.3306 0.1537 0.4142 1
 O(5) O 4 i 0.155 0 0.0823 1
 O(4) O 4 i 0.1553 0 0.5745 1
 Mo(1) Mo 4 i 0.2146 0 0.3599 1
 Co(1) Co 4 i 0.8121 0 0.1608 1
 Co(2) Co 4 h 0 0.1963 0.5 1
 Mo(2) Mo 4 g 0 0.2112 0 1


_exptl_crystal_colour                    ?
_exptl_crystal_density_meas              ?
_exptl_crystal_density_diffrn            4.84
_cell_measurement_temperature            50
_cell_measurement_radiation              'neutrons, time-of-flight'
_cell_measurement_reflns_used            ?
_diffrn_ambient_temperature              50
_diffrn_measurement_device               'automatic diffractometer'
_diffrn_measurement_device_type
;
U.S.A. Illinois, Argonne National Laboratory, Intense Pulsed Neutron Source IPNS, GPPD
;
_diffrn_radiation_type                   'neutrons, time-of-flight'
_diffrn_reflns_number                    ?
_diffrn_reflns_theta_min                 15
_diffrn_reflns_theta_max                 45
_pd_proc_2theta_range_min                30
_pd_proc_2theta_range_max                90
_exptl_absorpt_coefficient_mu            ?
_exptl_absorpt_correction_type           ?
_computing_structure_solution            'starting values from the literature'
_refine_ls_number_parameters             ?
_refine_ls_number_reflns                 ?
_refine_ls_R_factor_gt                   ?
_refine_ls_wR_factor_gt                  ?
_pd_proc_ls_proof_R_factor               ?
_pd_proc_ls_proof_wR_factor              ?
_refine_ls_R_I_factor                    ?

# End of data set 312171


