##############################################################################
#                                                                            #
# Co-H-N-O-P       # Co[PO4][NH3]4[H2O]3                           # 1001352 #
#                                                                            #
##############################################################################
#                                                                            #
#                           Pearson's Crystal Data                           #
#      Crystal Structure Database for Inorganic Compounds (on DVD)           #
#                              Release 2017/18                               #
#                  Editors: Pierre Villars and Karin Cenzual                 #
#                                                                            #
#   Copyright (c) ASM International & Material Phases Data System (MPDS),    #
# Switzerland & National Institute for Materials Science (NIMS), Japan, 2017 #
#                   All rights reserved. Version 2017.08                     #
#                                                                            #
#   This copy of Pearson's Crystal Data is licensed to:                      #
#   University of Alberta, Chemistry Department, 1-5 Installations License         #
#                                                                            #
##############################################################################

data_1001352
_audit_creation_date                     2017-12-04
_audit_creation_method
;
Pearson's Crystal Data browser
;
#_database_code_PCD                      1001352

# Entry summary

_chemical_formula_structural             'Co [P O~4~] [N H~3~]~4~ [H~2~ O]~3~'
_chemical_formula_sum                    'Co H20 N4 O7 P'
_chemical_name_mineral                   ?
_chemical_compound_source                ?
_chemical_name_structure_type
Co[PO~4~][NH~3~]~4~[H~2~O]~3~,mP26,4                                          
_chemical_formula_weight                 276.1

# Bibliographic data

_publ_section_title
'The crystal and molecular structure of [Co(PO~4~)(NH~3~)~4~].3H~2~O'         
_journal_coden_ASTM                      ZEKRDZ
_journal_name_full                       'Z. Kristallogr.'
_journal_year                            1981
_journal_volume                          157
_journal_page_first                      207
_journal_page_last                       214
_journal_language                        English
loop_
 _publ_author_name
 _publ_author_address
'Solans X.'
;
Consejo Superior de Investigaciones Cientificas
Institut de Ci\`encia de Materials
Bellaterra
Spain
;
'Rius J.'
;
Consejo Superior de Investigaciones Cientificas
Institut de Ci\`encia de Materials
Bellaterra
Spain
;
'Miravitlles C.'
;
Consejo Superior de Investigaciones Cientificas
Institut de Ci\`encia de Materials
Bellaterra
Spain
;

# Standardized crystallographic data

_cell_length_a                           6.88
_cell_length_b                           7.301
_cell_length_c                           9.73
_cell_angle_alpha                        90
_cell_angle_beta                         92.15
_cell_angle_gamma                        90
_cell_volume                             488.4
_cell_formula_units_Z                    2
_space_group_IT_number                   4
_space_group_name_H-M_alt                'P 1 21 1'
loop_
 _space_group_symop_id
 _space_group_symop_operation_xyz
 1 'x, y, z'
 2 '-x, 1/2+y, -z'
loop_
 _atom_type_symbol
 N
 O
 OH2
 Co
 P
 H
loop_
 _atom_site_label
 _atom_site_type_symbol
 _atom_site_symmetry_multiplicity
 _atom_site_Wyckoff_symbol
 _atom_site_fract_x
 _atom_site_fract_y
 _atom_site_fract_z
 _atom_site_occupancy
 N9 N 2 a 0.0106 0.2255 0.7521 1
 O2 O 2 a 0.085 0.2329 0.0391 1
 O10 OH2 2 a 0.1322 0.0288 0.4871 1
 Co1 Co 2 a 0.2394 0.2321 0.8773 1
 O11 OH2 2 a 0.2574 0.455 0.4974 1
 P1 P 2 a 0.2691 0.2275 0.1401 1
 O4 O 2 a 0.2778 0.409 0.2309 1
 O5 O 2 a 0.2793 0.0643 0.2225 1
 O3 O 2 a 0.4295 0.2293 0.0276 1
 N6 N 2 a 0.4384 0.2307 0.7393 1
 O12 OH2 2 a 0.6271 0.2847 0.3925 1
 N8 N 2 a 0.7568 0.4737 0.1256 1
 N7 N 2 a 0.7644 0.0 0.1209 1
 H91 H 2 a 0.02 0.2299 0.671 1
 H92 H 2 a 0.05 0.6429 0.241 1
 H93 H 2 a 0.077 0.8379 0.233 1
 H71 H 2 a 0.268 0.5029 0.185 1
 H73 H 2 a 0.325 0.4489 0.938 1
 H61 H 2 a 0.425 0.2239 0.654 1
 H63 H 2 a 0.494 0.3289 0.767 1
 H62 H 2 a 0.509 0.6569 0.255 1
 H121 H 2 a 0.622 0.1259 0.395 1
 H82 H 2 a 0.687 0.4589 0.083 1
 H101 H 2 a 0.7 0.4919 0.527 1
 H83 H 2 a 0.78 0.4429 0.231 1
 H81 H 2 a 0.855 0.4119 0.076 1
 H72 H 2 a 0.872 0.1209 0.083 1


_exptl_crystal_colour                    violet
_exptl_crystal_density_meas              1.87(3)
_exptl_crystal_density_diffrn            1.88
_cell_measurement_temperature            ?
_cell_measurement_radiation              'X-rays, Mo Ka'
_cell_measurement_reflns_used            15
_diffrn_ambient_temperature              ?
_diffrn_measurement_device               'automatic diffractometer'
_diffrn_measurement_device_type          Syntex
_diffrn_radiation_type                   'X-rays, Mo Ka'
_diffrn_reflns_number                    795
_exptl_absorpt_coefficient_mu            2.01
_exptl_absorpt_correction_type           no
_computing_structure_solution            'direct methods, Fourier synthesis'
_refine_ls_number_parameters             ?
_refine_ls_number_reflns                 729
_refine_ls_R_factor_gt                   0.044
_refine_ls_wR_factor_gt                  ?

# End of data set 1001352


