##############################################################################
#                                                                            #
# Co-H-O-S         # Co[SO4][H2O]                                  #  314935 #
#                                                                            #
##############################################################################
#                                                                            #
#                           Pearson's Crystal Data                           #
#      Crystal Structure Database for Inorganic Compounds (on DVD)           #
#                              Release 2017/18                               #
#                  Editors: Pierre Villars and Karin Cenzual                 #
#                                                                            #
#   Copyright (c) ASM International & Material Phases Data System (MPDS),    #
# Switzerland & National Institute for Materials Science (NIMS), Japan, 2017 #
#                   All rights reserved. Version 2017.08                     #
#                                                                            #
#   This copy of Pearson's Crystal Data is licensed to:                      #
#   University of Alberta, Chemistry Department, 1-5 Installations License         #
#                                                                            #
##############################################################################

data_314935
_audit_creation_date                     2017-12-01
_audit_creation_method
;
Pearson's Crystal Data browser
;
#_database_code_PCD                      314935

# Entry summary

_chemical_formula_structural             'Co [S O~4~] [H~2~ O]'
_chemical_formula_sum                    'Co H2 O5 S'
_chemical_name_mineral                   cobaltkieserite
_chemical_compound_source                ?
_chemical_name_structure_type            Mg[SO~4~][H~2~O],mS28,15
_chemical_formula_weight                 173.0

# Bibliographic data

_publ_section_title
;
Maille triclinique du sulfate de cuivre(II) monohydrat\'e
;
_journal_coden_ASTM                      CHDBAN
_journal_name_full                       'C. R. Seances Acad. Sci., Ser. B'
_journal_year                            1966
_journal_volume                          262
_journal_page_first                      722
_journal_page_last                       725
_journal_language                        French
loop_
 _publ_author_name
 _publ_author_address
'Coing Boyat J.'
;
Grenoble Joseph Fourier Institute
Laboratoire d'Electrostatique et de Physique du M\'etal
Grenoble
France
;
'Fur Y.L.'
;
Grenoble Joseph Fourier Institute
Laboratoire d'Electrostatique et de Physique du M\'etal
Grenoble
France
;

# Standardized crystallographic data

_cell_length_a                           7.028
_cell_length_b                           7.496
_cell_length_c                           7.49
_cell_angle_alpha                        90
_cell_angle_beta                         115.7
_cell_angle_gamma                        90
_cell_volume                             355.6
_cell_formula_units_Z                    4
_space_group_IT_number                   15
_space_group_name_H-M_alt                'C 1 2/c 1'
loop_
 _space_group_symop_id
 _space_group_symop_operation_xyz
 1 'x, y, z'
 2 '-x, -y, -z'
 3 '-x, y, 1/2-z'
 4 'x, -y, 1/2+z'
 5 '1/2+x, 1/2+y, z'
 6 '1/2-x, 1/2-y, -z'
 7 '1/2-x, 1/2+y, 1/2-z'
 8 '1/2+x, 1/2-y, 1/2+z'

# Atomic positions taken from type-defining entry

loop_
 _atom_type_symbol
 O
 S
 Co
loop_
 _atom_site_label
 _atom_site_type_symbol
 _atom_site_symmetry_multiplicity
 _atom_site_Wyckoff_symbol
 _atom_site_fract_x
 _atom_site_fract_y
 _atom_site_fract_z
 _atom_site_occupancy
 O1 O 8 f 0.0313 0.2055 0.1058 1
 O2 O 8 f 0.309 0.4833 0.1485 1
 S1 S 4 e 0 0.0952 0.25 1
 O3 O 4 e 0 0.6134 0.25 1
 Co1 Co 4 c 0.25 0.25 0 1


_exptl_crystal_colour                    ?
_exptl_crystal_density_meas              ?
_exptl_crystal_density_diffrn            3.23
_cell_measurement_temperature            ?
_cell_measurement_radiation              'X-rays, Co Ka'
_cell_measurement_wavelength             1.78892
_pd_proc_wavelength                      1.78892
_cell_measurement_reflns_used            ?
_diffrn_ambient_temperature              ?
_diffrn_measurement_device               'automatic diffractometer'
_diffrn_measurement_device_type          ?
_diffrn_radiation_type                   ?
_diffrn_reflns_number                    ?
_exptl_absorpt_coefficient_mu            ?
_exptl_absorpt_correction_type           ?
_computing_structure_solution            ?
_refine_ls_number_parameters             ?
_refine_ls_number_reflns                 ?
_refine_ls_R_factor_gt                   ?
_refine_ls_wR_factor_gt                  ?

# Published diffraction lines

loop_
 _refln_index_h
 _refln_index_k
 _refln_index_l
 _refln_d_spacing
 _refln_intensity_meas
 1 1 0 106.9 46
 -1 1 1 108.3 43
 0 2 0 136.4 10
 1 1 1 152.3 100
 -1 1 2 155.5 26
 0 2 1 157.3 36
 -2 0 2 170 53
 -2 2 1 204.2 20

# End of data set 314935


