##############################################################################
#                                                                            #
# Co-H-O-S         # Co[SO4][H2O]4                                 #  312923 #
#                                                                            #
##############################################################################
#                                                                            #
#                           Pearson's Crystal Data                           #
#      Crystal Structure Database for Inorganic Compounds (on DVD)           #
#                              Release 2017/18                               #
#                  Editors: Pierre Villars and Karin Cenzual                 #
#                                                                            #
#   Copyright (c) ASM International & Material Phases Data System (MPDS),    #
# Switzerland & National Institute for Materials Science (NIMS), Japan, 2017 #
#                   All rights reserved. Version 2017.08                     #
#                                                                            #
#   This copy of Pearson's Crystal Data is licensed to:                      #
#   University of Alberta, Chemistry Department, 1-5 Installations License         #
#                                                                            #
##############################################################################

data_312923
_audit_creation_date                     2017-12-01
_audit_creation_method
;
Pearson's Crystal Data browser
;
#_database_code_PCD                      312923

# Entry summary

_chemical_formula_structural             'Co [S O~4~] [H~2~ O]~4~'
_chemical_formula_sum                    'Co H8 O8 S'
_chemical_name_mineral                   aplowite
_chemical_compound_source                ?
_chemical_name_structure_type            Fe[SO~4~][H~2~O]~4~,mP40,14
_chemical_formula_weight                 227.1

# Bibliographic data

_publ_section_title
;
Thermogravim\'etrie des syst\`emes solides-gaz. D\'eshydratation thermique des sulfates de cobalt et de zinc hydrat\'es
;
_journal_coden_ASTM                      BSCFAS
_journal_name_full                       'Bull. Soc. Chim. Fr.'
_journal_year                            1969
_journal_volume                          ?
_journal_page_first                      2666
_journal_page_last                       2670
_journal_language                        French
loop_
 _publ_author_name
 _publ_author_address
'Guenot J.'
;
Paris University
Laboratoire de Cin\'etique Chimique
Paris
France
;
'Manoli J.M.'
;
Paris VI Pierre et Marie Curie University
Laboratoire de Cin\'etique Chimique
Paris
France
;
'Br\'egeault J.M.'
;
Paris VI Pierre et Marie Curie University
Laboratoire de Cin\'etique Chimique
Paris
France
;

# Standardized crystallographic data

_cell_length_a                           5.917
_cell_length_b                           13.504
_cell_length_c                           9.8123
_cell_angle_alpha                        90
_cell_angle_beta                         126.549
_cell_angle_gamma                        90
_cell_volume                             629.9
_cell_formula_units_Z                    4
_space_group_IT_number                   14
_space_group_name_H-M_alt                'P 1 21/c 1'
loop_
 _space_group_symop_id
 _space_group_symop_operation_xyz
 1 'x, y, z'
 2 '-x, -y, -z'
 3 '-x, 1/2+y, 1/2-z'
 4 'x, 1/2-y, 1/2+z'

# Atomic positions taken from type-defining entry

loop_
 _atom_type_symbol
 O
 Co
 S
loop_
 _atom_site_label
 _atom_site_type_symbol
 _atom_site_symmetry_multiplicity
 _atom_site_Wyckoff_symbol
 _atom_site_fract_x
 _atom_site_fract_y
 _atom_site_fract_z
 _atom_site_occupancy
 O1 O 4 e 0.0 0.0729 0.1415 1
 O2 O 4 e 0.0334 0.75 0.216 1
 Co1 Co 4 e 0.1505 0.6026 0.2183 1
 O3 O 4 e 0.2517 0.4516 0.2446 1
 O4 O 4 e 0.2563 0.4232 0.0026 1
 O5 O 4 e 0.3112 0.2867 0.1812 1
 O6 O 4 e 0.3171 0.6391 0.0859 1
 S1 S 4 e 0.3743 0.3904 0.1764 1
 O7 O 4 e 0.4416 0.1254 0.0579 1
 O8 O 4 e 0.6815 0.4047 0.2865 1


_exptl_crystal_colour                    ?
_exptl_crystal_density_meas              ?
_exptl_crystal_density_diffrn            2.39
_cell_measurement_temperature            ?
_cell_measurement_radiation              'X-rays, Cu Ka'
_cell_measurement_reflns_used            50
_diffrn_ambient_temperature              ?
_diffrn_measurement_device               film
_diffrn_measurement_device_type          ?
_diffrn_radiation_type                   ?
_diffrn_reflns_number                    ?
_exptl_absorpt_coefficient_mu            ?
_exptl_absorpt_correction_type           ?
_computing_structure_solution            ?
_refine_ls_number_parameters             ?
_refine_ls_number_reflns                 ?
_refine_ls_R_factor_gt                   ?
_refine_ls_wR_factor_gt                  ?

# Published diffraction lines

loop_
 _refln_index_h
 _refln_index_k
 _refln_index_l
 _refln_d_spacing
 _refln_intensity_meas
 0 1 1 68.2 5
 0 2 0 67.5 5
 1 1 0 54.2 8
 0 2 1 51.25 3
 1 0 1 47.08 3
 1 1 1 44.49 8
 0 0 2 39.32 7
 0 1 2 37.76 2
 1 3 0 35.84 3
 0 4 0 33.77 7
 1 3 1 32.53 5
 1 1 -2 31.97 5
 2 0 0 29.59 5
 1 4 0 29.34 7
 2 1 0 28.91 3
 1 4 -1 27.53 3
 1 4 1 27.43 3
 2 1 1 27.06 3
 1 3 -2 26.57 3
 0 5 1 25.55 5
 1 5 0 24.58 3
 0 2 3 24.44 2
 1 0 -3 24.06 5
 2 3 1 23.51 3
 2 1 -2 23.4 3
 2 1 2 23.18 3
 1 2 -3 22.66 3
 0 6 0 22.51 5
 2 2 2 22.22 3
 0 6 1 21.65 3
 2 4 1 21.38 2
 1 3 -3 21.22 2
 2 3 -2 21.01 2
 2 3 2 20.88 2
 1 6 -1 20.35 2

# End of data set 312923


