##############################################################################
#                                                                            #
# As-Co            # CoAs2 rt                                      #  526832 #
#                                                                            #
##############################################################################
#                                                                            #
#                           Pearson's Crystal Data                           #
#      Crystal Structure Database for Inorganic Compounds (on DVD)           #
#                              Release 2017/18                               #
#                  Editors: Pierre Villars and Karin Cenzual                 #
#                                                                            #
#   Copyright (c) ASM International & Material Phases Data System (MPDS),    #
# Switzerland & National Institute for Materials Science (NIMS), Japan, 2017 #
#                   All rights reserved. Version 2017.08                     #
#                                                                            #
#   This copy of Pearson's Crystal Data is licensed to:                      #
#   University of Alberta, Chemistry Department, 1-5 Installations License         #
#                                                                            #
##############################################################################

data_526832
_audit_creation_date                     2017-12-01
_audit_creation_method
;
Pearson's Crystal Data browser
;
#_database_code_PCD                      526832

# Entry summary

_chemical_formula_structural             'Co As~2~'
_chemical_formula_sum                    'As2 Co'
_chemical_name_mineral                   ?
_chemical_compound_source                ?
_chemical_name_structure_type            CoSb~2~,mP12,14
_chemical_formula_weight                 208.8

# Bibliographic data

_publ_section_title
'On the Properties of Binary Compounds with the CoSb~2~ Type Crystal Structure'
_journal_coden_ASTM                      ACSAA4
_journal_name_full                       'Acta Chem. Scand.'
_journal_year                            1971
_journal_volume                          25
_journal_page_first                      411
_journal_page_last                       422
_journal_language                        English
loop_
 _publ_author_name
 _publ_author_address
'Kjekshus A.'
;
Oslo University
Kjemisk Institutt
Oslo
Norway
;

# Standardized crystallographic data

_cell_length_a                           5.9106
_cell_length_b                           5.868
_cell_length_c                           5.9587
_cell_angle_alpha                        90
_cell_angle_beta                         116.432
_cell_angle_gamma                        90
_cell_volume                             185.06
_cell_formula_units_Z                    4
_space_group_IT_number                   14
_space_group_name_H-M_alt                'P 1 21/c 1'
loop_
 _space_group_symop_id
 _space_group_symop_operation_xyz
 1 'x, y, z'
 2 '-x, -y, -z'
 3 '-x, 1/2+y, 1/2-z'
 4 'x, 1/2-y, 1/2+z'
loop_
 _atom_type_symbol
 As
 Co
loop_
 _atom_site_label
 _atom_site_type_symbol
 _atom_site_symmetry_multiplicity
 _atom_site_Wyckoff_symbol
 _atom_site_fract_x
 _atom_site_fract_y
 _atom_site_fract_z
 _atom_site_occupancy
 AsI As 4 e 0.1589 0.6345 0.3248 1
 Co Co 4 e 0.2277 -0.0031 0.2168 1
 AsII As 4 e 0.3445 0.3656 0.1358 1


_exptl_crystal_colour                    ?
_exptl_crystal_density_meas              7.41
_exptl_crystal_density_diffrn            7.49
_cell_measurement_temperature            ?
_cell_measurement_radiation              'X-rays, Cu Ka'
_cell_measurement_wavelength             1.5405
_pd_proc_wavelength                      1.5405
_cell_measurement_reflns_used            ?
_diffrn_ambient_temperature              ?
_diffrn_measurement_device               'Weissenberg photographs'
_diffrn_measurement_device_type          ?
_diffrn_radiation_type                   'X-rays, Mo Ka'
_diffrn_reflns_number                    ?
_exptl_absorpt_coefficient_mu            ?
_exptl_absorpt_correction_type           ?
_computing_structure_solution            'starting values from the literature'
_refine_ls_number_parameters             ?
_refine_ls_number_reflns                 ?
_refine_ls_R_factor_gt                   0.085
_refine_ls_wR_factor_gt                  ?

# End of data set 526832


