##############################################################################
#                                                                            #
# Cl-Co-H-O        # CoCl2[H2O]6                                   #  557937 #
#                                                                            #
##############################################################################
#                                                                            #
#                           Pearson's Crystal Data                           #
#      Crystal Structure Database for Inorganic Compounds (on DVD)           #
#                              Release 2017/18                               #
#                  Editors: Pierre Villars and Karin Cenzual                 #
#                                                                            #
#   Copyright (c) ASM International & Material Phases Data System (MPDS),    #
# Switzerland & National Institute for Materials Science (NIMS), Japan, 2017 #
#                   All rights reserved. Version 2017.08                     #
#                                                                            #
#   This copy of Pearson's Crystal Data is licensed to:                      #
#   University of Alberta, Chemistry Department, 1-5 Installations License         #
#                                                                            #
##############################################################################

data_557937
_audit_creation_date                     2017-12-04
_audit_creation_method
;
Pearson's Crystal Data browser
;
#_database_code_PCD                      557937

# Entry summary

_chemical_formula_structural             'Co Cl~2~ [H~2~ O]~6~'
_chemical_formula_sum                    'Cl2 Co H12 O6'
_chemical_name_mineral                   ?
_chemical_compound_source                ?
_chemical_name_structure_type            CoCl~2~[H~2~O]~6~,mS18,12
_chemical_formula_weight                 237.9

# Bibliographic data

_publ_section_title
;
Magnetization process in the mixed system of uniaxial and planar antiferromagnets Ni~x~Co~1-x~Cl~2~.6H~2~O in high magnetic field
;
_journal_coden_ASTM                      JUPSAU
_journal_name_full                       'J. Phys. Soc. Jpn.'
_journal_year                            1980
_journal_volume                          48
_journal_page_first                      1942
_journal_page_last                       1948
_journal_language                        English
loop_
 _publ_author_name
 _publ_author_address
'Matsuura M.'
;
Toyonaka Osaka University
Faculty of Engineering Science
Toyonaka / Osaka
Japan
;
'Muramatsu T.'
;
Toyonaka Osaka University
Faculty of Engineering Science
Toyonaka / Osaka
Japan
;
'Wakisaka Y.'
;
Toyonaka Osaka University
Faculty of Engineering Science
Toyonaka / Osaka
Japan
;
'Nakamura T.'
;
Toyonaka Osaka University
Faculty of Engineering Science
Toyonaka / Osaka
Japan
;
'Haseda T.'
;
Toyonaka Osaka University
Faculty of Engineering Science
Toyonaka / Osaka
Japan
;

# Standardized crystallographic data

_cell_length_a                           10.34
_cell_length_b                           7.06
_cell_length_c                           6.67
_cell_angle_alpha                        90
_cell_angle_beta                         122.33
_cell_angle_gamma                        90
_cell_volume                             411.4
_cell_formula_units_Z                    2
_space_group_IT_number                   12
_space_group_name_H-M_alt                'C 1 2/m 1'
loop_
 _space_group_symop_id
 _space_group_symop_operation_xyz
 1 'x, y, z'
 2 '-x, -y, -z'
 3 '-x, y, -z'
 4 'x, -y, z'
 5 '1/2+x, 1/2+y, z'
 6 '1/2-x, 1/2-y, -z'
 7 '1/2-x, 1/2+y, -z'
 8 '1/2+x, 1/2-y, z'

# Atomic positions taken from type-defining entry

loop_
 _atom_type_symbol
 O
 Cl
 Co
loop_
 _atom_site_label
 _atom_site_type_symbol
 _atom_site_symmetry_multiplicity
 _atom_site_Wyckoff_symbol
 _atom_site_fract_x
 _atom_site_fract_y
 _atom_site_fract_z
 _atom_site_occupancy
 O1 O 8 j 0.0299 0.2028 0.2496 1
 Cl1 Cl 4 i 0.2743 0 0.169 1
 O2 O 4 i 0.2797 0 0.6943 1
 Co1 Co 2 a 0 0 0 1


_exptl_crystal_colour                    ?
_exptl_crystal_density_meas              ?
_exptl_crystal_density_diffrn            1.92
_cell_measurement_temperature            ?
_cell_measurement_radiation              X-rays
_cell_measurement_reflns_used            ?
_diffrn_ambient_temperature              ?
_diffrn_measurement_device               film
_diffrn_measurement_device_type          ?
_diffrn_radiation_type                   ?
_diffrn_reflns_number                    ?
_exptl_absorpt_coefficient_mu            ?
_exptl_absorpt_correction_type           ?
_computing_structure_solution            ?
_refine_ls_number_parameters             ?
_refine_ls_number_reflns                 ?
_refine_ls_R_factor_gt                   ?
_refine_ls_wR_factor_gt                  ?

# End of data set 557937


