##############################################################################
#                                                                            #
# Co-F-Ge-H-O      # CoGeF6[H2O]6 mon1                             # 1503778 #
#                                                                            #
##############################################################################
#                                                                            #
#                           Pearson's Crystal Data                           #
#      Crystal Structure Database for Inorganic Compounds (on DVD)           #
#                              Release 2017/18                               #
#                  Editors: Pierre Villars and Karin Cenzual                 #
#                                                                            #
#   Copyright (c) ASM International & Material Phases Data System (MPDS),    #
# Switzerland & National Institute for Materials Science (NIMS), Japan, 2017 #
#                   All rights reserved. Version 2017.08                     #
#                                                                            #
#   This copy of Pearson's Crystal Data is licensed to:                      #
#   University of Alberta, Chemistry Department, 1-5 Installations License         #
#                                                                            #
##############################################################################

data_1503778
_audit_creation_date                     2017-12-05
_audit_creation_method
;
Pearson's Crystal Data browser
;
#_database_code_PCD                      1503778

# Entry summary

_chemical_formula_structural             'Co Ge F~6~ [H~2~ O]~6~'
_chemical_formula_sum                    'Co F6 Ge H12 O6'
_chemical_name_mineral                   ?
_chemical_compound_source                ?
_chemical_name_structure_type            *,mS16,12
_chemical_formula_weight                 353.6

# Bibliographic data

_publ_section_title
;
The structure of crystals of cobaltous hexafluogermanate hexahydrate [Co(H~2~O)~6~][GeF~6~]
;
_journal_coden_ASTM                      SPHCA6
_journal_name_full                       'Sov. Phys. Crystallogr.'
_journal_year                            1957
_journal_volume                          2
_journal_page_first                      602
_journal_page_last                       605
_journal_language                        English
loop_
 _publ_author_name
 _publ_author_address
'Khodashova T.S.'
;
Russian Academy of Sciences
Kalinin Polytechnic Institute
Krasnoyarsk
Russia
;

# Standardized crystallographic data

_cell_length_a                           13.0279
_cell_length_b                           19.52
_cell_length_c                           9.72
_cell_angle_alpha                        90
_cell_angle_beta                         119.226
_cell_angle_gamma                        90
_cell_volume                             2157.2
_cell_formula_units_Z                    8
_space_group_IT_number                   12
_space_group_name_H-M_alt                'C 1 2/m 1'
loop_
 _space_group_symop_id
 _space_group_symop_operation_xyz
 1 'x, y, z'
 2 '-x, -y, -z'
 3 '-x, y, -z'
 4 'x, -y, z'
 5 '1/2+x, 1/2+y, z'
 6 '1/2-x, 1/2-y, -z'
 7 '1/2-x, 1/2+y, -z'
 8 '1/2+x, 1/2-y, z'
loop_
 _atom_type_symbol
 Ge
 Co
loop_
 _atom_site_label
 _atom_site_type_symbol
 _atom_site_symmetry_multiplicity
 _atom_site_Wyckoff_symbol
 _atom_site_fract_x
 _atom_site_fract_y
 _atom_site_fract_z
 _atom_site_occupancy
 Ge2 Ge 4 i 0.25 0 0.5 1
 Ge1 Ge 4 g 0 0.25 0 1
 Co3 Co 4 e 0.25 0.25 0 1
 Co1 Co 2 c 0 0 0.5 1
 Co2 Co 2 a 0 0 0 1


_exptl_crystal_colour                    ?
_exptl_crystal_density_meas              ?
_exptl_crystal_density_diffrn            ?
_cell_measurement_temperature            ?
_cell_measurement_radiation              'X-rays, Mo Ka'
_cell_measurement_reflns_used            ?
_diffrn_ambient_temperature              ?
_diffrn_measurement_device               'rotation photographs'
_diffrn_measurement_device_type          ?
_diffrn_radiation_type                   'X-rays, Mo Ka'
_diffrn_reflns_number                    ?
_exptl_absorpt_coefficient_mu            ?
_exptl_absorpt_correction_type           ?
_computing_structure_solution            'Patterson and Fourier synthesis'
_refine_ls_number_parameters             ?
_refine_ls_number_reflns                 ?
_refine_ls_R_factor_gt                   ?
_refine_ls_wR_factor_gt                  ?

# End of data set 1503778


