##############################################################################
#                                                                            #
# Co-P             # CoP2                                          #  532392 #
#                                                                            #
##############################################################################
#                                                                            #
#                           Pearson's Crystal Data                           #
#      Crystal Structure Database for Inorganic Compounds (on DVD)           #
#                              Release 2017/18                               #
#                  Editors: Pierre Villars and Karin Cenzual                 #
#                                                                            #
#   Copyright (c) ASM International & Material Phases Data System (MPDS),    #
# Switzerland & National Institute for Materials Science (NIMS), Japan, 2017 #
#                   All rights reserved. Version 2017.08                     #
#                                                                            #
#   This copy of Pearson's Crystal Data is licensed to:                      #
#   University of Alberta, Chemistry Department, 1-5 Installations License         #
#                                                                            #
##############################################################################

data_532392
_audit_creation_date                     2017-12-04
_audit_creation_method
;
Pearson's Crystal Data browser
;
#_database_code_PCD                      532392

# Entry summary

_chemical_formula_structural             'Co P~2~'
_chemical_formula_sum                    'Co P2'
_chemical_name_mineral                   ?
_chemical_compound_source                ?
_chemical_name_structure_type            CoSb~2~,mP12,14
_chemical_formula_weight                 120.9

# Bibliographic data

_publ_section_title
'High-pressure syntheses and properties of CoP~2~ and MnCoP~4~'               
_journal_coden_ASTM                      MRBUAC
_journal_name_full                       'Mater. Res. Bull.'
_journal_year                            1972
_journal_volume                          7
_journal_page_first                      943
_journal_page_last                       948
_journal_language                        English
loop_
 _publ_author_name
 _publ_author_address
'Donohue P.C.'
;
Du Pont de Nemours and Co.
Central Research and Development Department
Wilmington
U.S.A. Delaware
;

# Standardized crystallographic data

_cell_length_a                           5.61
_cell_length_b                           5.591
_cell_length_c                           5.643
_cell_angle_alpha                        90
_cell_angle_beta                         116.82
_cell_angle_gamma                        90
_cell_volume                             157.96
_cell_formula_units_Z                    4
_space_group_IT_number                   14
_space_group_name_H-M_alt                'P 1 21/c 1'
loop_
 _space_group_symop_id
 _space_group_symop_operation_xyz
 1 'x, y, z'
 2 '-x, -y, -z'
 3 '-x, 1/2+y, 1/2-z'
 4 'x, 1/2-y, 1/2+z'

# Atomic positions taken from type-defining entry

loop_
 _atom_type_symbol
 P
 Co
loop_
 _atom_site_label
 _atom_site_type_symbol
 _atom_site_symmetry_multiplicity
 _atom_site_Wyckoff_symbol
 _atom_site_fract_x
 _atom_site_fract_y
 _atom_site_fract_z
 _atom_site_occupancy
 P1 P 4 e 0.1534 0.6431 0.3325 1
 Co1 Co 4 e 0.2299 0.0005 0.2183 1
 P2 P 4 e 0.3511 0.3607 0.1329 1


_exptl_crystal_colour                    ?
_exptl_crystal_density_meas              ?
_exptl_crystal_density_diffrn            5.08
_cell_measurement_temperature            ?
_cell_measurement_radiation              X-rays
_cell_measurement_reflns_used            ?
_diffrn_ambient_temperature              ?
_diffrn_measurement_device               'Guinier film'
_diffrn_measurement_device_type          ?
_diffrn_radiation_type                   ?
_diffrn_reflns_number                    ?
_exptl_absorpt_coefficient_mu            ?
_exptl_absorpt_correction_type           ?
_computing_structure_solution            ?
_refine_ls_number_parameters             ?
_refine_ls_number_reflns                 ?
_refine_ls_R_factor_gt                   ?
_refine_ls_wR_factor_gt                  ?

# Published diffraction lines

loop_
 _refln_index_h
 _refln_index_k
 _refln_index_l
 _refln_d_spacing
 _refln_intensity_meas
 -1 1 1 36.377 90
 0 2 0 27.942 60
 0 0 2 25.179 80
 -2 0 0 25.036 100
 -1 2 1 24.143 90
 0 1 2 22.958 40
 -2 1 0 22.848 45
 -2 1 2 22.029 30
 0 2 2 18.712 40
 -2 2 0 18.649 50
 -1 1 3 17.699 70
 -3 1 1 17.589 60
 -2 1 3 17.363 50
 1 3 1 15.747 60
 -1 2 3 15.518 15
 -3 2 1 15.452 15
 -3 1 3 15.356 25
 0 3 2 14.98 15
 -2 3 0 14.946 10
 -2 3 2 14.72 10

# End of data set 532392


