##############################################################################
#                                                                            #
# Cr-Ga            # Cr3Ga4                                        #  451624 #
#                                                                            #
##############################################################################
#                                                                            #
#                           Pearson's Crystal Data                           #
#      Crystal Structure Database for Inorganic Compounds (on DVD)           #
#                              Release 2017/18                               #
#                  Editors: Pierre Villars and Karin Cenzual                 #
#                                                                            #
#   Copyright (c) ASM International & Material Phases Data System (MPDS),    #
# Switzerland & National Institute for Materials Science (NIMS), Japan, 2017 #
#                   All rights reserved. Version 2017.08                     #
#                                                                            #
#   This copy of Pearson's Crystal Data is licensed to:                      #
#   University of Alberta, Chemistry Department, 1-5 Installations License         #
#                                                                            #
##############################################################################

data_451624
_audit_creation_date                     2017-12-01
_audit_creation_method
;
Pearson's Crystal Data browser
;
#_database_code_PCD                      451624

# Entry summary

_chemical_formula_structural             'Cr~3~ Ga~4~'
_chemical_formula_sum                    'Cr3 Ga4'
_chemical_name_mineral                   ?
_chemical_compound_source                ?
_chemical_name_structure_type            Fe~3~Ga~4~,mS42,12
_chemical_formula_weight                 434.9

# Bibliographic data

_publ_section_title
'Structures cristallines des phases Fe~3~Ga~4~ et Cr~3~Ga~4~'                 
_journal_coden_ASTM                      ACBCAR
_journal_name_full                       'Acta Crystallogr. B'
_journal_year                            1975
_journal_volume                          31
_journal_page_first                      477
_journal_page_last                       482
_journal_language                        French
loop_
 _publ_author_name
 _publ_author_address
'Philippe M.J.'
;
Vandoeuvre-l\`es-Nancy I Henri Poincar\'e University
Vandoeuvre-l\`es-Nancy
France
;
'Malaman B.'
;
Centre National de la Recherche Scientifique (CNRS)
Laboratoire de Chimie du Solide
Vandoeuvre-l\`es-Nancy
France
;
'Roques B.'
;
Vandoeuvre-l\`es-Nancy I Henri Poincar\'e University
Vandoeuvre-l\`es-Nancy
France
;
'Courtois A.'
;
Vandoeuvre-l\`es-Nancy I Henri Poincar\'e University
Vandoeuvre-l\`es-Nancy
France
;
'Protas J.'
;
Vandoeuvre-l\`es-Nancy I Henri Poincar\'e University
Vandoeuvre-l\`es-Nancy
France
;

# Standardized crystallographic data

_cell_length_a                           10.135
_cell_length_b                           7.845
_cell_length_c                           7.986
_cell_angle_alpha                        90
_cell_angle_beta                         105.99
_cell_angle_gamma                        90
_cell_volume                             610.39
_cell_formula_units_Z                    6
_space_group_IT_number                   12
_space_group_name_H-M_alt                'C 1 2/m 1'
loop_
 _space_group_symop_id
 _space_group_symop_operation_xyz
 1 'x, y, z'
 2 '-x, -y, -z'
 3 '-x, y, -z'
 4 'x, -y, z'
 5 '1/2+x, 1/2+y, z'
 6 '1/2-x, 1/2-y, -z'
 7 '1/2-x, 1/2+y, -z'
 8 '1/2+x, 1/2-y, z'
loop_
 _atom_type_symbol
 Ga
 Cr
loop_
 _atom_site_label
 _atom_site_type_symbol
 _atom_site_symmetry_multiplicity
 _atom_site_Wyckoff_symbol
 _atom_site_fract_x
 _atom_site_fract_y
 _atom_site_fract_z
 _atom_site_occupancy
 Ga(3) Ga 8 j 0.1042 0.2903 0.1526 1
 Ga(4) Ga 8 j 0.3487 0.1917 0.4447 1
 Cr(4) Cr 8 j 0.3592 0.3076 0.1493 1
 Ga(2) Ga 4 i 0.0475 0 0.3529 1
 Cr(3) Cr 4 i 0.2295 0 0.6531 1
 Ga(1) Ga 4 i 0.2803 0 0.0895 1
 Cr(2) Cr 4 i 0.5018 0 0.3246 1
 Cr(1) Cr 2 a 0 0 0 1


_exptl_crystal_colour                    ?
_exptl_crystal_density_meas              7.01
_exptl_crystal_density_diffrn            7.10
_cell_measurement_temperature            ?
_cell_measurement_radiation              'X-rays, Cu Ka'
_cell_measurement_reflns_used            ?
_diffrn_ambient_temperature              ?
_diffrn_measurement_device               'Bohlin-Seemann film'
_diffrn_measurement_device_type          ?
_diffrn_radiation_type                   ?
_diffrn_reflns_number                    ?
_exptl_absorpt_coefficient_mu            ?
_exptl_absorpt_correction_type           ?
_computing_structure_solution            ?
_refine_ls_number_parameters             ?
_refine_ls_number_reflns                 ?
_refine_ls_R_factor_gt                   ?
_refine_ls_wR_factor_gt                  ?

# Published diffraction lines

loop_
 _refln_index_h
 _refln_index_k
 _refln_index_l
 _refln_d_spacing
 _refln_intensity_meas
 -2 2 1 30.2 10
 -3 1 2 27.2 5
 2 0 2 26.9 10
 -2 2 2 26.2 10
 1 3 0 25.2 20
 4 0 0 24.4 10
 1 3 1 23.5 10
 -1 3 2 21.86 30
 -2 2 3 21.51 60
 -4 2 1 21.29 20
 4 2 0 20.7 100
 -3 3 1 20.55 40
 1 3 2 20.41 10
 -5 1 1 19.65 20
 0 0 4 19.23 10
 3 3 1 18.92 10
 2 2 3 18.15 5

# End of data set 451624


