##############################################################################
#                                                                            #
# Cr-Te            # Cr3Te4 rt                                     #  311938 #
#                                                                            #
##############################################################################
#                                                                            #
#                           Pearson's Crystal Data                           #
#      Crystal Structure Database for Inorganic Compounds (on DVD)           #
#                              Release 2017/18                               #
#                  Editors: Pierre Villars and Karin Cenzual                 #
#                                                                            #
#   Copyright (c) ASM International & Material Phases Data System (MPDS),    #
# Switzerland & National Institute for Materials Science (NIMS), Japan, 2017 #
#                   All rights reserved. Version 2017.08                     #
#                                                                            #
#   This copy of Pearson's Crystal Data is licensed to:                      #
#   University of Alberta, Chemistry Department, 1-5 Installations License         #
#                                                                            #
##############################################################################

data_311938
_audit_creation_date                     2017-12-01
_audit_creation_method
;
Pearson's Crystal Data browser
;
#_database_code_PCD                      311938

# Entry summary

_chemical_formula_structural             'Cr~3~ Te~4~'
_chemical_formula_sum                    'Cr3 Te4'
_chemical_name_mineral                   ?
_chemical_compound_source                ?
_chemical_name_structure_type            Cr~3~S~4~,mS14,12
_chemical_formula_weight                 666.4

# Bibliographic data

_publ_section_title
;
Anisotropic thermal expansion and effect of pressure on magnetic transition temperatures in chromium chalcogenides Cr~3~X~4~ with X= Se and Te
;
_journal_coden_ASTM                      JMMMDC
_journal_name_full                       'J. Magn. Magn. Mater.'
_journal_year                            1996
_journal_volume                          163
_journal_page_first                      117
_journal_page_last                       124
_journal_language                        English
loop_
 _publ_author_name
 _publ_author_address
'Ohta S.'
;
Hachinohe Aomori Institute of Technology
Hachinohe / Aomori
Japan
;
'Kaneko T.'
;
Sendai Miyagi Tohoku University
Institute of Materials Research
Sendai / Miyagi
Japan
;
'Yoshida H.'
;
Sendai Miyagi Tohoku University
Institute of Materials Research
Sendai / Miyagi
Japan
;

# Standardized crystallographic data

_cell_length_a                           13.9156
_cell_length_b                           3.932
_cell_length_c                           6.854
_cell_angle_alpha                        90
_cell_angle_beta                         118.301
_cell_angle_gamma                        90
_cell_volume                             330.2
_cell_formula_units_Z                    2
_space_group_IT_number                   12
_space_group_name_H-M_alt                'C 1 2/m 1'
loop_
 _space_group_symop_id
 _space_group_symop_operation_xyz
 1 'x, y, z'
 2 '-x, -y, -z'
 3 '-x, y, -z'
 4 'x, -y, z'
 5 '1/2+x, 1/2+y, z'
 6 '1/2-x, 1/2-y, -z'
 7 '1/2-x, 1/2+y, -z'
 8 '1/2+x, 1/2-y, z'

# Atomic positions taken from type-defining entry

loop_
 _atom_type_symbol
 Te
 Cr
loop_
 _atom_site_label
 _atom_site_type_symbol
 _atom_site_symmetry_multiplicity
 _atom_site_Wyckoff_symbol
 _atom_site_fract_x
 _atom_site_fract_y
 _atom_site_fract_z
 _atom_site_occupancy
 Te1 Te 4 i 0.124 0 0.444 1
 Cr1 Cr 4 i 0.263 0 0.275 1
 Te2 Te 4 i 0.3635 0 0.0085 1
 Cr2 Cr 2 a 0 0 0 1


_exptl_crystal_colour                    ?
_exptl_crystal_density_meas              ?
_exptl_crystal_density_diffrn            6.70
_cell_measurement_temperature            298
_cell_measurement_radiation              'X-rays, Cu Ka'
_cell_measurement_reflns_used            ?
_diffrn_ambient_temperature              ?
_diffrn_measurement_device               'automatic diffractometer'
_diffrn_measurement_device_type          ?
_diffrn_radiation_type                   ?
_diffrn_reflns_number                    ?
_exptl_absorpt_coefficient_mu            ?
_exptl_absorpt_correction_type           ?
_computing_structure_solution            ?
_refine_ls_number_parameters             ?
_refine_ls_number_reflns                 ?
_refine_ls_R_factor_gt                   ?
_refine_ls_wR_factor_gt                  ?

# End of data set 311938


