##############################################################################
#                                                                            #
# Cr-Mo-O          # Cr[MoO4]                                      #  307947 #
#                                                                            #
##############################################################################
#                                                                            #
#                           Pearson's Crystal Data                           #
#      Crystal Structure Database for Inorganic Compounds (on DVD)           #
#                              Release 2017/18                               #
#                  Editors: Pierre Villars and Karin Cenzual                 #
#                                                                            #
#   Copyright (c) ASM International & Material Phases Data System (MPDS),    #
# Switzerland & National Institute for Materials Science (NIMS), Japan, 2017 #
#                   All rights reserved. Version 2017.08                     #
#                                                                            #
#   This copy of Pearson's Crystal Data is licensed to:                      #
#   University of Alberta, Chemistry Department, 1-5 Installations License         #
#                                                                            #
##############################################################################

data_307947
_audit_creation_date                     2017-12-01
_audit_creation_method
;
Pearson's Crystal Data browser
;
#_database_code_PCD                      307947

# Entry summary

_chemical_formula_structural             'Cr Mo O~4~'
_chemical_formula_sum                    'Cr Mo O4'
_chemical_name_mineral                   ?
_chemical_compound_source                ?
_chemical_name_structure_type            WAlO~4~,mS24,12
_chemical_formula_weight                 211.9

# Bibliographic data

_publ_section_title
;
Deux nouveaux compos\'es oxyg\'en\'es du molybd\`ene et du tungst\`ene(V): CrMoO~4~ et CrWO~4~
;
_journal_coden_ASTM                      CHDCAQ
_journal_name_full                       'C. R. Seances Acad. Sci., Ser. C'
_journal_year                            1975
_journal_volume                          280
_journal_page_first                      1397
_journal_page_last                       1399
_journal_language                        French
loop_
 _publ_author_name
 _publ_author_address
'Doumerc J.P.'
;
Grenoble
France
;
'Pouchard M.'
;
Talence Bordeaux I University
Talence
France
;
'Hagenmuller P.'
;
Talence Bordeaux I University
Talence
France
;

# Standardized crystallographic data

_cell_length_a                           9.22
_cell_length_b                           5.81
_cell_length_c                           4.62
_cell_angle_alpha                        90
_cell_angle_beta                         91.8
_cell_angle_gamma                        90
_cell_volume                             247.4
_cell_formula_units_Z                    4
_space_group_IT_number                   12
_space_group_name_H-M_alt                'C 1 2/m 1'
loop_
 _space_group_symop_id
 _space_group_symop_operation_xyz
 1 'x, y, z'
 2 '-x, -y, -z'
 3 '-x, y, -z'
 4 'x, -y, z'
 5 '1/2+x, 1/2+y, z'
 6 '1/2-x, 1/2-y, -z'
 7 '1/2-x, 1/2+y, -z'
 8 '1/2+x, 1/2-y, z'

# Atomic positions taken from type-defining entry

loop_
 _atom_type_symbol
 O
 Cr
 Mo
loop_
 _atom_site_label
 _atom_site_type_symbol
 _atom_site_symmetry_multiplicity
 _atom_site_Wyckoff_symbol
 _atom_site_fract_x
 _atom_site_fract_y
 _atom_site_fract_z
 _atom_site_occupancy
 O1 O 8 j 0.3496 0.2449 0.1988 1
 O2 O 4 i 0.0977 0 0.3025 1
 Cr1 Cr 4 i 0.241 0 0.0142 1
 O3 O 4 i 0.6141 0 0.2791 1
 Mo1 Mo 4 h 0 0.2716 0.5 1


_exptl_crystal_colour                    ?
_exptl_crystal_density_meas              5.57(5)
_exptl_crystal_density_diffrn            5.69
_cell_measurement_temperature            ?
_cell_measurement_radiation              'X-rays, Cu Ka'
_cell_measurement_reflns_used            ?
_diffrn_ambient_temperature              ?
_diffrn_measurement_device               film
_diffrn_measurement_device_type          ?
_diffrn_radiation_type                   ?
_diffrn_reflns_number                    ?
_exptl_absorpt_coefficient_mu            ?
_exptl_absorpt_correction_type           ?
_computing_structure_solution            ?
_refine_ls_number_parameters             ?
_refine_ls_number_reflns                 ?
_refine_ls_R_factor_gt                   ?
_refine_ls_wR_factor_gt                  ?

# Published diffraction lines

loop_
 _refln_index_h
 _refln_index_k
 _refln_index_l
 _refln_d_spacing
 _refln_intensity_meas
 0 0 1 46 30
 2 0 -1 33.12 90
 2 0 1 32.13 70
 0 2 1 24.57 100
 0 0 2 23.11 30
 4 0 0 23.05 30
 2 2 -1 21.84 30
 2 0 2 20.41 5
 4 0 1 20.38 5
 2 2 -2 16.97 40
 2 2 2 16.7 40
 4 0 -2 16.6 20
 4 0 2 16.08 10

# End of data set 307947


