##############################################################################
#                                                                            #
# Br-Co-Cr         # CrCoBr3                                       #  311342 #
#                                                                            #
##############################################################################
#                                                                            #
#                           Pearson's Crystal Data                           #
#      Crystal Structure Database for Inorganic Compounds (on DVD)           #
#                              Release 2017/18                               #
#                  Editors: Pierre Villars and Karin Cenzual                 #
#                                                                            #
#   Copyright (c) ASM International & Material Phases Data System (MPDS),    #
# Switzerland & National Institute for Materials Science (NIMS), Japan, 2017 #
#                   All rights reserved. Version 2017.08                     #
#                                                                            #
#   This copy of Pearson's Crystal Data is licensed to:                      #
#   University of Alberta, Chemistry Department, 1-5 Installations License         #
#                                                                            #
##############################################################################

data_311342
_audit_creation_date                     2017-12-01
_audit_creation_method
;
Pearson's Crystal Data browser
;
#_database_code_PCD                      311342

# Entry summary

_chemical_formula_structural             'Cr Co Br~3~'
_chemical_formula_sum                    'Br3 Co Cr'
_chemical_name_mineral                   ?
_chemical_compound_source                ?
_chemical_name_structure_type            BaNiO~3~,hP10,194
_chemical_formula_weight                 350.6

# Bibliographic data

_publ_section_title
;
Ising-like spin-1/2 quasi-one-dimensional antiferromagnets: Spin-wave response in CsCoX~3~ salts
;
_journal_coden_ASTM                      PRBMDO
_journal_name_full
'Phys. Rev. B: Condens. Matter Mater. Phys.'                                  
_journal_year                            1983
_journal_volume                          27
_journal_page_first                      1784
_journal_page_last                       1799
_journal_language                        English
loop_
 _publ_author_name
 _publ_author_address
'Nagler S.E.'
;
Atomic Energy Canada Ltd.
Chalk River Nuclear Laboratories
Chalk River
Canada
;
'Buyers W.J.L.'
;
Atomic Energy Canada Ltd.
Chalk River Nuclear Laboratories
Chalk River
Canada
;
'Armstrong R.L.'
;
Atomic Energy Canada Ltd.
Chalk River Nuclear Laboratories
Chalk River
Canada
;
'Briat B.'
;
Paris University
Ecole Sup\'erieure de Physique et de Chimie Industrielles
Paris
France
;

# Standardized crystallographic data

_cell_length_a                           7.45
_cell_length_b                           7.45
_cell_length_c                           6.26
_cell_angle_alpha                        90
_cell_angle_beta                         90
_cell_angle_gamma                        120
_cell_volume                             300.9
_cell_formula_units_Z                    2
_space_group_IT_number                   194
_space_group_name_H-M_alt                'P 63/m m c'
loop_
 _space_group_symop_id
 _space_group_symop_operation_xyz
 1 'x, y, z'
 2 '-x+y, -x, 1/2-z'
 3 '-x+y, -x, z'
 4 '-x+y, y, 1/2-z'
 5 '-x+y, y, z'
 6 '-x, -x+y, -z'
 7 '-x, -x+y, 1/2+z'
 8 '-x, -y, -z'
 9 '-x, -y, 1/2+z'
 10 '-y, -x, 1/2-z'
 11 '-y, -x, z'
 12 '-y, x-y, 1/2-z'
 13 '-y, x-y, z'
 14 'x, x-y, 1/2-z'
 15 'x, x-y, z'
 16 'x, y, 1/2-z'
 17 'x-y, -y, -z'
 18 'x-y, -y, 1/2+z'
 19 'x-y, x, -z'
 20 'x-y, x, 1/2+z'
 21 'y, -x+y, -z'
 22 'y, -x+y, 1/2+z'
 23 'y, x, -z'
 24 'y, x, 1/2+z'

# Atomic positions taken from type-defining entry

loop_
 _atom_type_symbol
 Br
 Cr
 Co
loop_
 _atom_site_label
 _atom_site_type_symbol
 _atom_site_symmetry_multiplicity
 _atom_site_Wyckoff_symbol
 _atom_site_fract_x
 _atom_site_fract_y
 _atom_site_fract_z
 _atom_site_occupancy
 Br1 Br 6 h 0.1462 0.2924 0.25 1
 Cr1 Cr 2 d 0.333333 0.666667 0.75 1
 Co1 Co 2 a 0 0 0 1


_exptl_crystal_colour                    ?
_exptl_crystal_density_meas              ?
_exptl_crystal_density_diffrn            3.87
_cell_measurement_temperature            35
_cell_measurement_radiation              neutrons
_cell_measurement_reflns_used            ?
_diffrn_ambient_temperature              ?
_diffrn_measurement_device               diffractometer
_diffrn_measurement_device_type          ?
_diffrn_radiation_type                   ?
_diffrn_reflns_number                    ?
_exptl_absorpt_coefficient_mu            ?
_exptl_absorpt_correction_type           ?
_computing_structure_solution            ?
_refine_ls_number_parameters             ?
_refine_ls_number_reflns                 ?
_refine_ls_R_factor_gt                   ?
_refine_ls_wR_factor_gt                  ?

# End of data set 311342


