##############################################################################
#                                                                            #
# Cr-Sb            # CrSb                                          #  527916 #
#                                                                            #
##############################################################################
#                                                                            #
#                           Pearson's Crystal Data                           #
#      Crystal Structure Database for Inorganic Compounds (on DVD)           #
#                              Release 2017/18                               #
#                  Editors: Pierre Villars and Karin Cenzual                 #
#                                                                            #
#   Copyright (c) ASM International & Material Phases Data System (MPDS),    #
# Switzerland & National Institute for Materials Science (NIMS), Japan, 2017 #
#                   All rights reserved. Version 2017.08                     #
#                                                                            #
#   This copy of Pearson's Crystal Data is licensed to:                      #
#   University of Alberta, Chemistry Department, 1-5 Installations License         #
#                                                                            #
##############################################################################

data_527916
_audit_creation_date                     2017-12-01
_audit_creation_method
;
Pearson's Crystal Data browser
;
#_database_code_PCD                      527916

# Entry summary

_chemical_formula_structural             'Cr Sb'
_chemical_formula_sum                    'Cr Sb'
_chemical_name_mineral                   ?
_chemical_compound_source                ?
_chemical_name_structure_type            NiAs,hP4,194
_chemical_formula_weight                 173.7

# Bibliographic data

_publ_section_title
'The system chromium-antimony and its relations to some similar systems'      
_journal_coden_ASTM                      AMNVAA
_journal_name_full                       'Arch. Math. Naturvidensk.'
_journal_year                            1949
_journal_volume                          50
_journal_page_first                      95
_journal_page_last                       135
_journal_language                        English
loop_
 _publ_author_name
 _publ_author_address
'Haraldsen H.'
;
Oslo University
Kjemisk Institutt
Oslo
Norway
;
'Rosenqvist T.'
;
Oslo University
Kjemisk Institutt
Oslo
Norway
;
'Gronvold F.'
;
Oslo University
Kjemisk Institutt
Oslo
Norway
;

# Standardized crystallographic data

_cell_length_a                           4.127
_cell_length_b                           4.127
_cell_length_c                           5.451
_cell_angle_alpha                        90
_cell_angle_beta                         90
_cell_angle_gamma                        120
_cell_volume                             80.4
_cell_formula_units_Z                    2
_space_group_IT_number                   194
_space_group_name_H-M_alt                'P 63/m m c'
loop_
 _space_group_symop_id
 _space_group_symop_operation_xyz
 1 'x, y, z'
 2 '-x+y, -x, 1/2-z'
 3 '-x+y, -x, z'
 4 '-x+y, y, 1/2-z'
 5 '-x+y, y, z'
 6 '-x, -x+y, -z'
 7 '-x, -x+y, 1/2+z'
 8 '-x, -y, -z'
 9 '-x, -y, 1/2+z'
 10 '-y, -x, 1/2-z'
 11 '-y, -x, z'
 12 '-y, x-y, 1/2-z'
 13 '-y, x-y, z'
 14 'x, x-y, 1/2-z'
 15 'x, x-y, z'
 16 'x, y, 1/2-z'
 17 'x-y, -y, -z'
 18 'x-y, -y, 1/2+z'
 19 'x-y, x, -z'
 20 'x-y, x, 1/2+z'
 21 'y, -x+y, -z'
 22 'y, -x+y, 1/2+z'
 23 'y, x, -z'
 24 'y, x, 1/2+z'
loop_
 _atom_type_symbol
 Sb
 Cr
loop_
 _atom_site_label
 _atom_site_type_symbol
 _atom_site_symmetry_multiplicity
 _atom_site_Wyckoff_symbol
 _atom_site_fract_x
 _atom_site_fract_y
 _atom_site_fract_z
 _atom_site_occupancy
 Sb Sb 2 c 0.333333 0.666667 0.25 1
 Cr Cr 2 a 0 0 0 1


_exptl_crystal_colour                    ?
_exptl_crystal_density_meas              7.106
_exptl_crystal_density_diffrn            7.18
_cell_measurement_temperature            ?
_cell_measurement_radiation              'X-rays, Cr Ka'
_cell_measurement_wavelength             2.287
_pd_proc_wavelength                      2.287
_cell_measurement_reflns_used            ?
_diffrn_ambient_temperature              ?
_diffrn_measurement_device               'Debye-Scherrer film'
_diffrn_measurement_device_type          ?
_diffrn_radiation_type                   ?
_diffrn_reflns_number                    ?
_exptl_absorpt_coefficient_mu            ?
_exptl_absorpt_correction_type           ?
_computing_structure_solution            ?
_refine_ls_number_parameters             ?
_refine_ls_number_reflns                 ?
_refine_ls_R_factor_gt                   ?
_refine_ls_wR_factor_gt                  ?

# Published diffraction lines

loop_
 _refln_index_h
 _refln_index_k
 _refln_index_l
 _refln_d_spacing
 _refln_intensity_meas
 1 0 1 1.464 7
 1 0 1 1.221 2
 0 0 2 1.746 2
 1 0 2 2.306 2
 1 0 2 2.785 7
 1 1 0 3.07 5
 1 1 0 2.545 2
 2 0 1 3.718 2
 2 0 1 4.538 5
 1 1 2 4.843 3
 1 0 3 4.124 2
 1 0 3 4.983 5
 2 0 2 5.86 5
 0 0 4 7.012 2
 2 1 1 7.605 8
 2 0 3 6.677 2
 2 0 3 8.058 7
 1 2 2 7.386 2
 1 2 2 8.924 9
 1 1 4 8.372 2

# End of data set 527916


