##############################################################################
#                                                                            #
# Cr-Se            # CrSe ht2                                      #  378197 #
#                                                                            #
##############################################################################
#                                                                            #
#                           Pearson's Crystal Data                           #
#      Crystal Structure Database for Inorganic Compounds (on DVD)           #
#                              Release 2017/18                               #
#                  Editors: Pierre Villars and Karin Cenzual                 #
#                                                                            #
#   Copyright (c) ASM International & Material Phases Data System (MPDS),    #
# Switzerland & National Institute for Materials Science (NIMS), Japan, 2017 #
#                   All rights reserved. Version 2017.08                     #
#                                                                            #
#   This copy of Pearson's Crystal Data is licensed to:                      #
#   University of Alberta, Chemistry Department, 1-5 Installations License         #
#                                                                            #
##############################################################################

data_378197
_audit_creation_date                     2017-12-01
_audit_creation_method
;
Pearson's Crystal Data browser
;
#_database_code_PCD                      378197

# Entry summary

_chemical_formula_structural             'Cr Se'
_chemical_formula_sum                    'Cr Se'
_chemical_name_mineral                   ?
_chemical_compound_source                ?
_chemical_name_structure_type            NiAs,hP4,194
_chemical_formula_weight                 131.0

# Bibliographic data

_publ_section_title
'Synthesis and X-ray phase study of chromium sulfoselenide and telluroselenide'
_journal_coden_ASTM                      INOMAF
_journal_name_full                       'Inorg. Mater.'
_journal_year                            1967
_journal_volume                          3
_journal_page_first                      1482
_journal_page_last                       1484
_journal_language                        English
loop_
 _publ_author_name
 _publ_author_address
'Doronina L.M.'
;
Russian Academy of Sciences
Institute of Thermophysics
Novosibirsk
Russia
;
'Filatkina V.S.'
;
Russian Academy of Sciences
Institute of Thermophysics
Novosibirsk
Russia
;
'Batsanov S.S.'
;
Russian Academy of Sciences
Institute of Thermophysics
Novosibirsk
Russia
;

# Standardized crystallographic data

_cell_length_a                           3.68
_cell_length_b                           3.68
_cell_length_c                           6.02
_cell_angle_alpha                        90
_cell_angle_beta                         90
_cell_angle_gamma                        120
_cell_volume                             70.6
_cell_formula_units_Z                    2
_space_group_IT_number                   194
_space_group_name_H-M_alt                'P 63/m m c'
loop_
 _space_group_symop_id
 _space_group_symop_operation_xyz
 1 'x, y, z'
 2 '-x+y, -x, 1/2-z'
 3 '-x+y, -x, z'
 4 '-x+y, y, 1/2-z'
 5 '-x+y, y, z'
 6 '-x, -x+y, -z'
 7 '-x, -x+y, 1/2+z'
 8 '-x, -y, -z'
 9 '-x, -y, 1/2+z'
 10 '-y, -x, 1/2-z'
 11 '-y, -x, z'
 12 '-y, x-y, 1/2-z'
 13 '-y, x-y, z'
 14 'x, x-y, 1/2-z'
 15 'x, x-y, z'
 16 'x, y, 1/2-z'
 17 'x-y, -y, -z'
 18 'x-y, -y, 1/2+z'
 19 'x-y, x, -z'
 20 'x-y, x, 1/2+z'
 21 'y, -x+y, -z'
 22 'y, -x+y, 1/2+z'
 23 'y, x, -z'
 24 'y, x, 1/2+z'
loop_
 _atom_type_symbol
 Se
 Cr
loop_
 _atom_site_label
 _atom_site_type_symbol
 _atom_site_symmetry_multiplicity
 _atom_site_Wyckoff_symbol
 _atom_site_fract_x
 _atom_site_fract_y
 _atom_site_fract_z
 _atom_site_occupancy
 Se Se 2 c 0.333333 0.666667 0.25 1
 Cr Cr 2 a 0 0 0 1


_exptl_crystal_colour                    ?
_exptl_crystal_density_meas              5.88
_exptl_crystal_density_diffrn            6.16
_cell_measurement_temperature            ?
_cell_measurement_radiation              'X-rays, Cu Ka'
_cell_measurement_reflns_used            ?
_diffrn_ambient_temperature              ?
_diffrn_measurement_device               'Debye film'
_diffrn_measurement_device_type          ?
_diffrn_radiation_type                   ?
_diffrn_reflns_number                    ?
_exptl_absorpt_coefficient_mu            ?
_exptl_absorpt_correction_type           ?
_computing_structure_solution            ?
_refine_ls_number_parameters             ?
_refine_ls_number_reflns                 ?
_refine_ls_R_factor_gt                   ?
_refine_ls_wR_factor_gt                  ?

# Published diffraction lines

loop_
 _refln_index_h
 _refln_index_k
 _refln_index_l
 _refln_d_spacing
 _refln_intensity_meas
 0 0 2 29.7 2
 0 1 1 28.1 8
 0 1 2 21.7 8
 1 1 0 18.33 8
 0 1 3 16.9 5
 1 1 2 15.68 2
 0 2 1 15.35 5
 0 0 4 15.01 3
 0 2 2 13.99 5
 0 2 3 12.44 3
 1 2 1 11.82 5
 1 1 4 11.59 5
 1 2 2 11.17 5
 0 3 0 10.59 5
 1 2 3 10.26 5
 0 3 2 9.96 2
 0 1 6 9.56 3
 2 2 0 9.18 3
 1 3 1 8.74 3
 0 3 4 8.65 3
 1 3 2 8.48 5
 0 1 7 8.29 2
 1 3 3 8.08 3
 0 4 1 7.89 2
 1 1 7 7.84 3

# End of data set 378197


