##############################################################################
#                                                                            #
# Cr-Si            # CrSi2                                         #  452191 #
#                                                                            #
##############################################################################
#                                                                            #
#                           Pearson's Crystal Data                           #
#      Crystal Structure Database for Inorganic Compounds (on DVD)           #
#                              Release 2017/18                               #
#                  Editors: Pierre Villars and Karin Cenzual                 #
#                                                                            #
#   Copyright (c) ASM International & Material Phases Data System (MPDS),    #
# Switzerland & National Institute for Materials Science (NIMS), Japan, 2017 #
#                   All rights reserved. Version 2017.08                     #
#                                                                            #
#   This copy of Pearson's Crystal Data is licensed to:                      #
#   University of Alberta, Chemistry Department, 1-5 Installations License         #
#                                                                            #
##############################################################################

data_452191
_audit_creation_date                     2017-12-01
_audit_creation_method
;
Pearson's Crystal Data browser
;
#_database_code_PCD                      452191

# Entry summary

_chemical_formula_structural             'Cr Si~2~'
_chemical_formula_sum                    'Cr Si2'
_chemical_name_mineral                   ?
_chemical_compound_source                ?
_chemical_name_structure_type            CrSi~2~,hP9,180
_chemical_formula_weight                 108.2
_chemical_melting_point                  1763(20)

# Bibliographic data

_publ_section_title
'Phase Relationships in the System Chromium-Silicon'                          
_journal_coden_ASTM                      TMSAAB
_journal_name_full                       'Trans. Metall. Soc. AIME'
_journal_year                            1968
_journal_volume                          242
_journal_page_first                      1509
_journal_page_last                       1515
_journal_language                        English
loop_
 _publ_author_name
 _publ_author_address
'Chang Y.A.'
;
Wisconsin Milwaukee Madison University
Department of Materials
Milwaukee
U.S.A. Wisconsin
;

# Standardized crystallographic data

_cell_length_a                           4.43
_cell_length_b                           4.43
_cell_length_c                           6.365
_cell_angle_alpha                        90
_cell_angle_beta                         90
_cell_angle_gamma                        120
_cell_volume                             108.18
_cell_formula_units_Z                    3
_space_group_IT_number                   180
_space_group_name_H-M_alt                'P 62 2 2'
loop_
 _space_group_symop_id
 _space_group_symop_operation_xyz
 1 'x, y, z'
 2 '-x+y, -x, 1/3+z'
 3 '-x+y, y, -z'
 4 '-x, -x+y, 1/3-z'
 5 '-x, -y, z'
 6 '-y, -x, -1/3-z'
 7 '-y, x-y, -1/3+z'
 8 'x, x-y, 1/3-z'
 9 'x-y, -y, -z'
 10 'x-y, x, 1/3+z'
 11 'y, -x+y, -1/3+z'
 12 'y, x, -1/3-z'

# Atomic positions taken from type-defining entry

loop_
 _atom_type_symbol
 Si
 Cr
loop_
 _atom_site_label
 _atom_site_type_symbol
 _atom_site_symmetry_multiplicity
 _atom_site_Wyckoff_symbol
 _atom_site_fract_x
 _atom_site_fract_y
 _atom_site_fract_z
 _atom_site_occupancy
 Si1 Si 6 i 0.16578 0.33156 0 1
 Cr1 Cr 3 c 0.5 0 0 1


_exptl_crystal_colour                    ?
_exptl_crystal_density_meas              ?
_exptl_crystal_density_diffrn            4.98
_cell_measurement_temperature            ?
_cell_measurement_radiation              'X-rays, Cr Ka'
_cell_measurement_reflns_used            ?
_diffrn_ambient_temperature              ?
_diffrn_measurement_device               'Debye-Scherrer film'
_diffrn_measurement_device_type          ?
_diffrn_radiation_type                   ?
_diffrn_reflns_number                    ?
_exptl_absorpt_coefficient_mu            ?
_exptl_absorpt_correction_type           ?
_computing_structure_solution            ?
_refine_ls_number_parameters             ?
_refine_ls_number_reflns                 ?
_refine_ls_R_factor_gt                   ?
_refine_ls_wR_factor_gt                  ?

# End of data set 452191


