##############################################################################
#                                                                            #
# Br-Cs-O-U        # Cs2[UO2]Br4                                   #  305411 #
#                                                                            #
##############################################################################
#                                                                            #
#                           Pearson's Crystal Data                           #
#      Crystal Structure Database for Inorganic Compounds (on DVD)           #
#                              Release 2017/18                               #
#                  Editors: Pierre Villars and Karin Cenzual                 #
#                                                                            #
#   Copyright (c) ASM International & Material Phases Data System (MPDS),    #
# Switzerland & National Institute for Materials Science (NIMS), Japan, 2017 #
#                   All rights reserved. Version 2017.08                     #
#                                                                            #
#   This copy of Pearson's Crystal Data is licensed to:                      #
#   University of Alberta, Chemistry Department, 1-5 Installations License         #
#                                                                            #
##############################################################################

data_305411
_audit_creation_date                     2017-12-01
_audit_creation_method
;
Pearson's Crystal Data browser
;
#_database_code_PCD                      305411

# Entry summary

_chemical_formula_structural             'Cs~2~ [U O~2~] Br~4~'
_chemical_formula_sum                    'Br4 Cs2 O2 U'
_chemical_name_mineral                   ?
_chemical_compound_source                ?
_chemical_name_structure_type            Cs~2~[UO~2~]Br~4~,mP18,14
_chemical_formula_weight                 855.5

# Bibliographic data

_publ_section_title
'Crystal Structure of Caesium Dioxotetrabromouranate(VI)'                     
_journal_coden_ASTM                      RJICAQ
_journal_name_full                       'Russ. J. Inorg. Chem.'
_journal_year                            1971
_journal_volume                          16
_journal_page_first                      1340
_journal_page_last                       1342
_journal_language                        English
loop_
 _publ_author_name
 _publ_author_address
'Mikhailov Y.N.'
;
Russian Academy of Sciences
Kurnakov N.S. Institute of General and Inorganic Chemistry
Moscow
Russia
;
'Kuznetsov V.G.'
;
Russian Academy of Sciences
Kurnakov N.S. Institute of General and Inorganic Chemistry
Moscow
Russia
;

# Standardized crystallographic data

_cell_length_a                           6.415
_cell_length_b                           9.806
_cell_length_c                           9.959
_cell_angle_alpha                        90
_cell_angle_beta                         104.83
_cell_angle_gamma                        90
_cell_volume                             605.6
_cell_formula_units_Z                    2
_space_group_IT_number                   14
_space_group_name_H-M_alt                'P 1 21/c 1'
loop_
 _space_group_symop_id
 _space_group_symop_operation_xyz
 1 'x, y, z'
 2 '-x, -y, -z'
 3 '-x, 1/2+y, 1/2-z'
 4 'x, 1/2-y, 1/2+z'
loop_
 _atom_type_symbol
 Br
 O
 Cs
 U
loop_
 _atom_site_label
 _atom_site_type_symbol
 _atom_site_symmetry_multiplicity
 _atom_site_Wyckoff_symbol
 _atom_site_fract_x
 _atom_site_fract_y
 _atom_site_fract_z
 _atom_site_occupancy
 BrII Br 4 e 0.164 0.061 0.282 1
 O O 4 e 0.189 0.397 0.461 1
 BrI Br 4 e 0.258 0.763 0.026 1
 Cs Cs 4 e 0.322 0.384 0.161 1
 U U 2 a 0 0 0 1


_exptl_crystal_colour                    orange
_exptl_crystal_density_meas              4.64
_exptl_crystal_density_diffrn            4.69
_cell_measurement_temperature            ?
_cell_measurement_radiation              'X-rays, Mo Ka'
_cell_measurement_reflns_used            ?
_diffrn_ambient_temperature              ?
_diffrn_measurement_device               'Laue and oscillation photographs'
_diffrn_measurement_device_type          ?
_diffrn_radiation_type                   'X-rays, Mo Ka'
_diffrn_reflns_number                    ?
_exptl_absorpt_coefficient_mu            40.03
_exptl_absorpt_correction_type           ?
_computing_structure_solution            'Patterson and Fourier synthesis'
_refine_ls_number_parameters             ?
_refine_ls_number_reflns                 740
_refine_ls_R_factor_gt                   0.095
_refine_ls_wR_factor_gt                  ?

# End of data set 305411


