##############################################################################
#                                                                            #
# Cs-O-S           # Cs2[S2O6]                                     # 1503119 #
#                                                                            #
##############################################################################
#                                                                            #
#                           Pearson's Crystal Data                           #
#      Crystal Structure Database for Inorganic Compounds (on DVD)           #
#                              Release 2017/18                               #
#                  Editors: Pierre Villars and Karin Cenzual                 #
#                                                                            #
#   Copyright (c) ASM International & Material Phases Data System (MPDS),    #
# Switzerland & National Institute for Materials Science (NIMS), Japan, 2017 #
#                   All rights reserved. Version 2017.08                     #
#                                                                            #
#   This copy of Pearson's Crystal Data is licensed to:                      #
#   University of Alberta, Chemistry Department, 1-5 Installations License         #
#                                                                            #
##############################################################################

data_1503119
_audit_creation_date                     2017-12-05
_audit_creation_method
;
Pearson's Crystal Data browser
;
#_database_code_PCD                      1503119

# Entry summary

_chemical_formula_structural             'Cs~2~ [S~2~ O~6~]'
_chemical_formula_sum                    'Cs2 O6 S2'
_chemical_name_mineral                   ?
_chemical_compound_source                ?
_chemical_name_structure_type            Cs~2~[S~2~O~6~],hP20,186
_chemical_formula_weight                 425.9

# Bibliographic data

_publ_section_title
;
Piezoelectric, electro-optic, dielectric, elastic and thermoelastic properties of hexagonal Cs~2~S~2~O~6~, LiClO~4~.3H~2~O, LiClO~4~.3D~2~O, and Ba(NO~2~)~2~.H~2~O
;
_journal_coden_ASTM                      ACACBN
_journal_name_full                       'Acta Crystallogr. A'
_journal_year                            1978
_journal_volume                          34
_journal_page_first                      547
_journal_page_last                       550
_journal_language                        English
loop_
 _publ_author_name
 _publ_author_address
'Hauss\"uhl S.'
;
Cologne (K\"oln) University
Institut f\"ur Kristallographie
Cologne (K\"oln)
Germany
;

# Standardized crystallographic data

_cell_length_a                           6.357
_cell_length_b                           6.357
_cell_length_c                           11.539
_cell_angle_alpha                        90
_cell_angle_beta                         90
_cell_angle_gamma                        120
_cell_volume                             403.8
_cell_formula_units_Z                    2
_space_group_IT_number                   186
_space_group_name_H-M_alt                'P 63 m c'
loop_
 _space_group_symop_id
 _space_group_symop_operation_xyz
 1 'x, y, z'
 2 '-x+y, -x, z'
 3 '-x+y, y, z'
 4 '-x, -x+y, 1/2+z'
 5 '-x, -y, 1/2+z'
 6 '-y, -x, z'
 7 '-y, x-y, z'
 8 'x, x-y, z'
 9 'x-y, -y, 1/2+z'
 10 'x-y, x, 1/2+z'
 11 'y, -x+y, 1/2+z'
 12 'y, x, 1/2+z'

# Atomic positions taken from type-defining entry

loop_
 _atom_type_symbol
 O
 S
 Cs
loop_
 _atom_site_label
 _atom_site_type_symbol
 _atom_site_symmetry_multiplicity
 _atom_site_Wyckoff_symbol
 _atom_site_fract_x
 _atom_site_fract_y
 _atom_site_fract_z
 _atom_site_occupancy
 O1 O 6 c 0.2056 0.7944 0.3104 1
 O2 O 6 c 0.4606 0.5394 0.0635 1
 S1 S 2 b 0.333333 0.666667 0.09394 1
 S2 S 2 b 0.333333 0.666667 0.27654 1
 Cs1 Cs 2 b 0.333333 0.666667 0.76131 1
 Cs2 Cs 2 a 0 0 0.0 1


_exptl_crystal_colour                    ?
_exptl_crystal_density_meas              3.503
_exptl_crystal_density_diffrn            3.50
_cell_measurement_temperature            293
_cell_measurement_radiation              X-rays
_cell_measurement_reflns_used            ?
_diffrn_ambient_temperature              ?
_diffrn_measurement_device               ?
_diffrn_measurement_device_type          ?
_diffrn_radiation_type                   ?
_diffrn_reflns_number                    ?
_exptl_absorpt_coefficient_mu            ?
_exptl_absorpt_correction_type           ?
_computing_structure_solution            ?
_refine_ls_number_parameters             ?
_refine_ls_number_reflns                 ?
_refine_ls_R_factor_gt                   ?
_refine_ls_wR_factor_gt                  ?

# End of data set 1503119


