##############################################################################
#                                                                            #
# Cs-Cu-H-O-S      # Cs2Cu[SO4]2[H2O]6                             #  313614 #
#                                                                            #
##############################################################################
#                                                                            #
#                           Pearson's Crystal Data                           #
#      Crystal Structure Database for Inorganic Compounds (on DVD)           #
#                              Release 2017/18                               #
#                  Editors: Pierre Villars and Karin Cenzual                 #
#                                                                            #
#   Copyright (c) ASM International & Material Phases Data System (MPDS),    #
# Switzerland & National Institute for Materials Science (NIMS), Japan, 2017 #
#                   All rights reserved. Version 2017.08                     #
#                                                                            #
#   This copy of Pearson's Crystal Data is licensed to:                      #
#   University of Alberta, Chemistry Department, 1-5 Installations License         #
#                                                                            #
##############################################################################

data_313614
_audit_creation_date                     2017-12-01
_audit_creation_method
;
Pearson's Crystal Data browser
;
#_database_code_PCD                      313614

# Entry summary

_chemical_formula_structural             'Cs~2~ Cu [S O~4~]~2~ [H~2~ O]~6~'
_chemical_formula_sum                    'Cs2 Cu H12 O14 S2'
_chemical_name_mineral                   ?
_chemical_compound_source                ?
_chemical_name_structure_type
[NH~4~]~2~Mg[SO~4~]~2~[H~2~O]~6~-b,mP38,14                                    
_chemical_formula_weight                 629.6

# Bibliographic data

_publ_section_title
;
Etude des processus de d\'egradation thermique des sels doubles hydrat\'es. V. Quelques aspects de la d\'eshydratation du sulfate Cs~2~Cu(SO~4~)~2~.6H~2~O
;
_journal_coden_ASTM                      BSCFAS
_journal_name_full                       'Bull. Soc. Chim. Fr.'
_journal_year                            1972
_journal_volume                          ?
_journal_page_first                      2658
_journal_page_last                       2662
_journal_language                        French
loop_
 _publ_author_name
 _publ_author_address
'Tardy M.'
;
Paris University
Laboratoire de Cin\'etique Chimique
Paris
France
;
'Br\'egeault J.M.'
;
Paris VI Pierre et Marie Curie University
Laboratoire de Cin\'etique Chimique
Paris
France
;
'Pannetier G.'
;
Paris University
Laboratoire de Cin\'etique Chimique
Paris
France
;

# Standardized crystallographic data

_cell_length_a                           6.287
_cell_length_b                           12.726
_cell_length_c                           9.385
_cell_angle_alpha                        90
_cell_angle_beta                         106.9
_cell_angle_gamma                        90
_cell_volume                             718.5
_cell_formula_units_Z                    2
_space_group_IT_number                   14
_space_group_name_H-M_alt                'P 1 21/c 1'
loop_
 _space_group_symop_id
 _space_group_symop_operation_xyz
 1 'x, y, z'
 2 '-x, -y, -z'
 3 '-x, 1/2+y, 1/2-z'
 4 'x, 1/2-y, 1/2+z'

# Atomic positions taken from type-defining entry

loop_
 _atom_type_symbol
 O
 Cs
 S
 Cu
loop_
 _atom_site_label
 _atom_site_type_symbol
 _atom_site_symmetry_multiplicity
 _atom_site_Wyckoff_symbol
 _atom_site_fract_x
 _atom_site_fract_y
 _atom_site_fract_z
 _atom_site_occupancy
 O1 O 4 e 0.0898 0.2295 0.4039 1
 O2 O 4 e 0.1282 0.0674 0.2807 1
 Cs1 Cs 4 e 0.1389 0.851 0.3684 1
 O3 O 4 e 0.2018 0.0691 0.002 1
 S1 S 4 e 0.243 0.1396 0.4046 1
 O4 O 4 e 0.2873 0.4175 0.0463 1
 O5 O 4 e 0.4546 0.1785 0.3821 1
 O6 O 4 e 0.5303 0.3904 0.3393 1
 O7 O 4 e 0.6669 0.1045 0.1694 1
 Cu1 Cu 2 b 0.5 0 0 1


_exptl_crystal_colour                    ?
_exptl_crystal_density_meas              2.87
_exptl_crystal_density_diffrn            2.91
_cell_measurement_temperature            ?
_cell_measurement_radiation              'X-rays, Cu Ka'
_cell_measurement_reflns_used            ?
_diffrn_ambient_temperature              ?
_diffrn_measurement_device               'Weissenberg photographs'
_diffrn_measurement_device_type          ?
_diffrn_radiation_type                   ?
_diffrn_reflns_number                    ?
_exptl_absorpt_coefficient_mu            ?
_exptl_absorpt_correction_type           ?
_computing_structure_solution            ?
_refine_ls_number_parameters             ?
_refine_ls_number_reflns                 ?
_refine_ls_R_factor_gt                   ?
_refine_ls_wR_factor_gt                  ?

# Published diffraction lines

loop_
 _refln_index_h
 _refln_index_k
 _refln_index_l
 _refln_d_spacing
 _refln_intensity_meas
 1 1 0 73.7 5
 0 0 1 60.4 5
 0 1 1 54.5 5
 1 2 0 51.9 5
 2 0 0 45.1 5
 0 2 1 43.8 5
 1 2 -1 42.9 5
 2 1 0 42.5 2
 1 1 1 42.2 8
 2 1 -1 40 5.5
 1 3 0 38.3 8
 1 2 1 36.8 5
 1 3 -1 34.2 5
 2 0 1 32.1 5
 0 4 0 31.75 5.5
 2 1 1 31.11 5
 2 3 0 30.87 3
 1 3 1 30.75 5
 1 1 -2 30.46 5.5
 3 1 -1 29.68 5
 0 1 2 29.29 5
 2 0 -2 29.09 5.5
 2 2 1 28.64 5.5
 0 4 1 28.11 7
 1 4 -1 27.87 5
 3 2 -1 27.51 5
 3 2 0 27.16 5
 2 2 -2 26.45 3
 1 1 2 25.97 2
 2 3 1 25.56 5
 2 4 -1 25.4 5
 1 3 -2 25.23 5
 3 3 -1 24.8 7
 0 3 2 24.64 3
 1 2 2 24.47 5
 0 5 1 23.45 5
 4 1 -1 23.02 5
 3 2 1 22.76 5
 2 4 1 22.59 7
 1 5 1 22.16 3
 0 4 2 21.88 3
 3 4 0 21.78 5
 2 4 -2 21.47 5
 0 6 0 21.28 5

# End of data set 313614


