##############################################################################
#                                                                            #
# B-Cs-Ga-O        # Cs2Ga2[BO3]2O                                 # 1100338 #
#                                                                            #
##############################################################################
#                                                                            #
#                           Pearson's Crystal Data                           #
#      Crystal Structure Database for Inorganic Compounds (on DVD)           #
#                              Release 2017/18                               #
#                  Editors: Pierre Villars and Karin Cenzual                 #
#                                                                            #
#   Copyright (c) ASM International & Material Phases Data System (MPDS),    #
# Switzerland & National Institute for Materials Science (NIMS), Japan, 2017 #
#                   All rights reserved. Version 2017.08                     #
#                                                                            #
#   This copy of Pearson's Crystal Data is licensed to:                      #
#   University of Alberta, Chemistry Department, 1-5 Installations License         #
#                                                                            #
##############################################################################

data_1100338
_audit_creation_date                     2017-12-04
_audit_creation_method
;
Pearson's Crystal Data browser
;
#_database_code_PCD                      1100338

# Entry summary

_chemical_formula_structural             'Cs~2~ Ga~2~ [B O~3~]~2~ O'
_chemical_formula_sum                    'B2 Cs2 Ga2 O7'
_chemical_name_mineral                   ?
_chemical_compound_source                ?
_chemical_name_structure_type            Cs~2~Ga~2~[BO~3~]~2~O,mP52,14
_chemical_formula_weight                 538.9

# Bibliographic data

_publ_section_title                      Cs~2~Ga~2~O(BO~3~)~2~
_journal_coden_ASTM                      ACSCEE
_journal_name_full                       'Acta Crystallogr. C'
_journal_year                            1995
_journal_volume                          51
_journal_page_first                      547
_journal_page_last                       549
_journal_language                        English
loop_
 _publ_author_name
 _publ_author_address
'Smith R.W.'
;
Nebraska Omaha University
Department of Physics
Omaha
U.S.A. Nebraska
;

# Standardized crystallographic data

_cell_length_a                           8.889
_cell_length_b                           7.998
_cell_length_c                           12.237
_cell_angle_alpha                        90
_cell_angle_beta                         103.82
_cell_angle_gamma                        90
_cell_volume                             844.8
_cell_formula_units_Z                    4
_space_group_IT_number                   14
_space_group_name_H-M_alt                'P 1 21/c 1'
loop_
 _space_group_symop_id
 _space_group_symop_operation_xyz
 1 'x, y, z'
 2 '-x, -y, -z'
 3 '-x, 1/2+y, 1/2-z'
 4 'x, 1/2-y, 1/2+z'
loop_
 _atom_type_symbol
 O
 Cs
 B
 Ga
loop_
 _atom_site_label
 _atom_site_type_symbol
 _atom_site_symmetry_multiplicity
 _atom_site_Wyckoff_symbol
 _atom_site_fract_x
 _atom_site_fract_y
 _atom_site_fract_z
 _atom_site_occupancy
 O1 O 4 e 0.017 0.016 0.377 1
 Cs2 Cs 4 e 0.0345 0.1227 0.1309 1
 B1 B 4 e 0.149 0.111 0.422 1
 Ga2 Ga 4 e 0.1862 0.563 0.1306 1
 O3 O 4 e 0.191 0.227 0.355 1
 O5 O 4 e 0.204 0.781 0.089 1
 O2 O 4 e 0.241 0.422 0.027 1
 O6 O 4 e 0.309 0.01 0.014 1
 O7 O 4 e 0.311 0.531 0.268 1
 Ga1 Ga 4 e 0.3398 0.3882 0.3869 1
 O4 O 4 e 0.527 0.279 0.406 1
 Cs1 Cs 4 e 0.5694 0.38 0.1525 1
 B2 B 4 e 0.669 0.357 0.435 1


_exptl_crystal_colour                    colorless
_exptl_crystal_density_meas              ?
_exptl_crystal_density_diffrn            4.24
_cell_measurement_temperature            295
_cell_measurement_radiation              'X-rays, Mo Ka'
_cell_measurement_wavelength             0.71069
_cell_measurement_reflns_used            20
_diffrn_ambient_temperature              295
_diffrn_measurement_device               'automatic diffractometer'
_diffrn_measurement_device_type          'Rigaku AFC6R'
_diffrn_radiation_type                   'X-rays, Mo Ka'
_diffrn_radiation_wavelength             0.71069
_diffrn_reflns_number                    2790
_exptl_absorpt_coefficient_mu            14.795
_exptl_absorpt_correction_type           yes
_computing_structure_solution            'Patterson synthesis'
_refine_ls_number_parameters             118
_refine_ls_number_reflns                 2002
_refine_ls_R_factor_gt                   0.054
_refine_ls_wR_factor_gt                  0.069

# End of data set 1100338


