##############################################################################
#                                                                            #
# C-Cs-Fe-K-N      # Cs2KFe[CN]6                                   # 1501623 #
#                                                                            #
##############################################################################
#                                                                            #
#                           Pearson's Crystal Data                           #
#      Crystal Structure Database for Inorganic Compounds (on DVD)           #
#                              Release 2017/18                               #
#                  Editors: Pierre Villars and Karin Cenzual                 #
#                                                                            #
#   Copyright (c) ASM International & Material Phases Data System (MPDS),    #
# Switzerland & National Institute for Materials Science (NIMS), Japan, 2017 #
#                   All rights reserved. Version 2017.08                     #
#                                                                            #
#   This copy of Pearson's Crystal Data is licensed to:                      #
#   University of Alberta, Chemistry Department, 1-5 Installations License         #
#                                                                            #
##############################################################################

data_1501623
_audit_creation_date                     2017-12-05
_audit_creation_method
;
Pearson's Crystal Data browser
;
#_database_code_PCD                      1501623

# Entry summary

_chemical_formula_structural             'Cs~2~ K Fe [C N]~6~'
_chemical_formula_sum                    'C6 Cs2 Fe K N6'
_chemical_name_mineral                   ?
_chemical_compound_source                ?
_chemical_name_structure_type            Cs~2~LiCr[CN]~6~,mP32,14
_chemical_formula_weight                 516.9

# Bibliographic data

_publ_section_title
'Single-crystal neutron diffraction of Cs~2~KFe(CN)~6~ at 4.2 K'              
_journal_coden_ASTM                      ACBCAR
_journal_name_full                       'Acta Crystallogr. B'
_journal_year                            1979
_journal_volume                          35
_journal_page_first                      3129
_journal_page_last                       3130
_journal_language                        English
loop_
 _publ_author_name
 _publ_author_address
'Herren F.'
;
Bern University
Institut f\"ur Anorganische Chemie
Bern
Switzerland
;
'Ludi A.'
;
Bern University
Institut f\"ur Anorganische Chemie
Bern
Switzerland
;
'Fischer P.'
;
Swiss Federal Institute of Technology (ETH)
Institut f\"ur Reaktortechnik
W\"urenlingen
Switzerland
;

# Standardized crystallographic data

_cell_length_a                           7.542
_cell_length_b                           8.118
_cell_length_c                           13.2402
_cell_angle_alpha                        90
_cell_angle_beta                         124.011
_cell_angle_gamma                        90
_cell_volume                             671.97
_cell_formula_units_Z                    2
_space_group_IT_number                   14
_space_group_name_H-M_alt                'P 1 21/c 1'
loop_
 _space_group_symop_id
 _space_group_symop_operation_xyz
 1 'x, y, z'
 2 '-x, -y, -z'
 3 '-x, 1/2+y, 1/2-z'
 4 'x, 1/2-y, 1/2+z'
loop_
 _atom_type_symbol
 C
 Cs
 N
 K
 Fe
loop_
 _atom_site_label
 _atom_site_type_symbol
 _atom_site_symmetry_multiplicity
 _atom_site_Wyckoff_symbol
 _atom_site_fract_x
 _atom_site_fract_y
 _atom_site_fract_z
 _atom_site_occupancy
 C3 C 4 e 0.0894 0.025 0.1666 1
 C1 C 4 e 0.2419 0.127 0.0331 1
 Cs Cs 4 e 0.2795 0.419 0.2522 1
 N2 N 4 e 0.2693 0.68 0.0697 1
 N3 N 4 e 0.1414 0.043 0.2669 1
 N1 N 4 e 0.3904 0.2 0.056 1
 C2 C 4 e 0.8339 0.203 -0.0425 1
 K K 2 d 0.5 0 0.5 1
 Fe Fe 2 a 0 0 0 1


_exptl_crystal_colour                    ?
_exptl_crystal_density_meas              ?
_exptl_crystal_density_diffrn            2.55
_cell_measurement_temperature            4.2
_cell_measurement_radiation              neutrons
_cell_measurement_wavelength             2.346
_pd_proc_wavelength                      2.346
_cell_measurement_reflns_used            53
_diffrn_ambient_temperature              4.2
_diffrn_measurement_device               'automatic diffractometer'
_diffrn_measurement_device_type
'Switzerland, Wuerenlingen, Paul Scherrer Institute, SAPHIR reactor'          
_diffrn_radiation_type                   neutrons
_diffrn_radiation_wavelength             1.05
_diffrn_reflns_number                    ?
_exptl_absorpt_coefficient_mu            ?
_exptl_absorpt_correction_type           yes
_computing_structure_solution            'starting values from the literature'
_refine_ls_number_parameters             ?
_refine_ls_number_reflns                 307
_refine_ls_R_factor_gt                   0.0795
_refine_ls_wR_factor_gt                  0.0440

# End of data set 1501623


