##############################################################################
#                                                                            #
# C-Cr-Cs-K-N      # Cs2KCr[CN]6 lt                                # 1100272 #
#                                                                            #
##############################################################################
#                                                                            #
#                           Pearson's Crystal Data                           #
#      Crystal Structure Database for Inorganic Compounds (on DVD)           #
#                              Release 2017/18                               #
#                  Editors: Pierre Villars and Karin Cenzual                 #
#                                                                            #
#   Copyright (c) ASM International & Material Phases Data System (MPDS),    #
# Switzerland & National Institute for Materials Science (NIMS), Japan, 2017 #
#                   All rights reserved. Version 2017.08                     #
#                                                                            #
#   This copy of Pearson's Crystal Data is licensed to:                      #
#   University of Alberta, Chemistry Department, 1-5 Installations License         #
#                                                                            #
##############################################################################

data_1100272
_audit_creation_date                     2017-12-04
_audit_creation_method
;
Pearson's Crystal Data browser
;
#_database_code_PCD                      1100272

# Entry summary

_chemical_formula_structural             'Cs~2~ K Cr [C N]~6~'
_chemical_formula_sum                    'C6 Cr Cs2 K N6'
_chemical_name_mineral                   ?
_chemical_compound_source                ?
_chemical_name_structure_type            Cs~2~LiCr[CN]~6~,mP32,14
_chemical_formula_weight                 513.0

# Bibliographic data

_publ_section_title
;
Structure of the elpasolite dicesium potassium hexacyanochromate(III), Cs~2~K[Cr(CN)~6~], at 295 K
;
_journal_coden_ASTM                      ACSCEE
_journal_name_full                       'Acta Crystallogr. C'
_journal_year                            1983
_journal_volume                          39
_journal_page_first                      1587
_journal_page_last                       1588
_journal_language                        English
loop_
 _publ_author_name
 _publ_author_address
'Figgis B.N.'
;
Nedlands Western Australia University
Department of Chemistry
Nedlands
Australia
;
'Kucharski E.S.'
;
Nedlands Western Australia University
Department of Chemistry
Nedlands
Australia
;
'Reynolds P.A.'
;
Nedlands Western Australia University
Department of Chemistry
Nedlands
Australia
;
'White A.H.'
;
Nedlands Western Australia University
Department of Chemistry
Nedlands
Australia
;

# Standardized crystallographic data

_cell_length_a                           7.761
_cell_length_b                           8.303
_cell_length_c                           13.6766
_cell_angle_alpha                        90
_cell_angle_beta                         124.273
_cell_angle_gamma                        90
_cell_volume                             728.29
_cell_formula_units_Z                    2
_space_group_IT_number                   14
_space_group_name_H-M_alt                'P 1 21/c 1'
loop_
 _space_group_symop_id
 _space_group_symop_operation_xyz
 1 'x, y, z'
 2 '-x, -y, -z'
 3 '-x, 1/2+y, 1/2-z'
 4 'x, 1/2-y, 1/2+z'
loop_
 _atom_type_symbol
 C
 Cs
 N
 K
 Cr
loop_
 _atom_site_label
 _atom_site_type_symbol
 _atom_site_symmetry_multiplicity
 _atom_site_Wyckoff_symbol
 _atom_site_fract_x
 _atom_site_fract_y
 _atom_site_fract_z
 _atom_site_occupancy
 C3 C 4 e 0.0959 -0.0257 0.1742 1
 C1 C 4 e 0.2556 -0.1327 0.0352 1
 Cs Cs 4 e 0.2283 0.5723 0.2511 1
 N2 N 4 e 0.2696 0.6755 0.0697 1
 N3 N 4 e 0.1453 -0.0451 0.269 1
 N1 N 4 e 0.6023 0.2049 -0.057 1
 C2 C 4 e 0.9161 0.2099 0.0447 1
 K K 2 d 0.5 0 0.5 1
 Cr Cr 2 a 0 0 0 1


_exptl_crystal_colour                    ?
_exptl_crystal_density_meas              2.33(1)
_exptl_crystal_density_diffrn            2.34
_cell_measurement_temperature            295
_cell_measurement_radiation              'X-rays, Mo Ka'
_cell_measurement_wavelength             0.71069
_cell_measurement_reflns_used            6
_diffrn_ambient_temperature              295
_diffrn_measurement_device               'automatic diffractometer'
_diffrn_measurement_device_type          'Syntex P21'
_diffrn_radiation_type                   'X-rays, Mo Ka'
_diffrn_radiation_wavelength             0.71069
_diffrn_reflns_number                    7570
_exptl_absorpt_coefficient_mu            6.1
_exptl_absorpt_correction_type           analytical
_computing_structure_solution            'starting values from the literature'
_refine_ls_number_parameters             ?
_refine_ls_number_reflns                 2364
_refine_ls_R_factor_gt                   0.042
_refine_ls_wR_factor_gt                  0.037

# End of data set 1100272


