##############################################################################
#                                                                            #
# Cs-Ir-Na-O       # Cs2Na2IrO4                                    #  303782 #
#                                                                            #
##############################################################################
#                                                                            #
#                           Pearson's Crystal Data                           #
#      Crystal Structure Database for Inorganic Compounds (on DVD)           #
#                              Release 2017/18                               #
#                  Editors: Pierre Villars and Karin Cenzual                 #
#                                                                            #
#   Copyright (c) ASM International & Material Phases Data System (MPDS),    #
# Switzerland & National Institute for Materials Science (NIMS), Japan, 2017 #
#                   All rights reserved. Version 2017.08                     #
#                                                                            #
#   This copy of Pearson's Crystal Data is licensed to:                      #
#   University of Alberta, Chemistry Department, 1-5 Installations License         #
#                                                                            #
##############################################################################

data_303782
_audit_creation_date                     2017-12-01
_audit_creation_method
;
Pearson's Crystal Data browser
;
#_database_code_PCD                      303782

# Entry summary

_chemical_formula_structural             'Cs~2~ Na~2~ Ir O~4~'
_chemical_formula_sum                    'Cs2 Ir Na2 O4'
_chemical_name_mineral                   ?
_chemical_compound_source                ?
_chemical_name_structure_type            Cs~2~Na~2~IrO~4~,mS36,12
_chemical_formula_weight                 568.0

# Bibliographic data

_publ_section_title
;
Das erste Caesium-haltige Oxoiridat(IV): Cs~2~Na~2~[IrO~4~] mit quadratisch-planarer Baugruppe [IrO~4~]^4-^
;
_journal_coden_ASTM                      JALCEU
_journal_name_full                       'J. Alloys Compd.'
_journal_year                            1992
_journal_volume                          183
_journal_page_first                      198
_journal_page_last                       209
_journal_language                        German
loop_
 _publ_author_name
 _publ_author_address
'Mader K.H.'
;
Giessen Justus Liebig University
Institut f\"ur Anorganische und Analytische Chemie
Giessen
Germany
;
'Hoppe R.'
;
Giessen Justus Liebig University
Institut f\"ur Anorganische und Analytische Chemie
Giessen
Germany
;

# Standardized crystallographic data

_cell_length_a                           11.9249
_cell_length_b                           5.9082
_cell_length_c                           9.6037
_cell_angle_alpha                        90
_cell_angle_beta                         104.27
_cell_angle_gamma                        90
_cell_volume                             655.7
_cell_formula_units_Z                    4
_space_group_IT_number                   12
_space_group_name_H-M_alt                'C 1 2/m 1'
loop_
 _space_group_symop_id
 _space_group_symop_operation_xyz
 1 'x, y, z'
 2 '-x, -y, -z'
 3 '-x, y, -z'
 4 'x, -y, z'
 5 '1/2+x, 1/2+y, z'
 6 '1/2-x, 1/2-y, -z'
 7 '1/2-x, 1/2+y, -z'
 8 '1/2+x, 1/2-y, z'
loop_
 _atom_type_symbol
 O
 Cs
 Na
 Ir
loop_
 _atom_site_label
 _atom_site_type_symbol
 _atom_site_symmetry_multiplicity
 _atom_site_Wyckoff_symbol
 _atom_site_fract_x
 _atom_site_fract_y
 _atom_site_fract_z
 _atom_site_occupancy
 O(1) O 8 j 0.117 0.2282 0.0314 1
 Cs(2) Cs 4 i 0.1638 0 0.3629 1
 Cs(1) Cs 4 i 0.1729 0 0.7407 1
 Na(1) Na 4 i 0.2835 0 0.0742 1
 O(2) O 4 i 0.3764 0 0.5939 1
 O(3) O 4 i 0.396 0 0.3111 1
 Na(2) Na 4 i 0.5259 0 0.1591 1
 Ir(1) Ir 2 d 0 0.5 0.5 1
 Ir(2) Ir 2 a 0 0 0 1


_exptl_crystal_colour                    'red, dark'
_exptl_crystal_density_meas              ?
_exptl_crystal_density_diffrn            5.75
_cell_measurement_temperature            ?
_cell_measurement_radiation              'X-rays, Cu Ka'
_cell_measurement_wavelength             1.54178
_pd_proc_wavelength                      1.54178
_cell_measurement_reflns_used            ?
_diffrn_ambient_temperature              ?
_diffrn_measurement_device               'automatic diffractometer'
_diffrn_measurement_device_type          'Siemens AED2'
_diffrn_radiation_type                   'X-rays, Mo Ka'
_diffrn_radiation_wavelength             0.71069
_diffrn_reflns_number                    7710
_diffrn_reflns_theta_min                 3
_diffrn_reflns_theta_max                 30
_exptl_absorpt_coefficient_mu            29.847
_exptl_absorpt_correction_type           yes
_computing_structure_solution            'direct methods, Patterson synthesis'
_refine_ls_number_parameters             54
_refine_ls_number_reflns                 ?
_refine_ls_R_factor_gt                   0.0432
_refine_ls_wR_factor_gt                  0.0414

# Published diffraction lines

loop_
 _refln_index_h
 _refln_index_k
 _refln_index_l
 _refln_d_spacing
 _refln_intensity_meas
 1 1 0 214.5 1
 1 1 -1 256.6 2
 1 1 1 310.6 3
 2 0 -2 343.9 1
 1 1 -2 434.7 2
 3 1 -1 556.7 3
 2 0 2 559.9 3
 3 1 0 570.6 3
 0 2 0 680.1 9
 3 1 1 720.6 4
 1 1 -3 749.6 10

# End of data set 303782


