##############################################################################
#                                                                            #
# Cs-H-Na-O-P-Zn   # Cs2Na6Zn6[PO4]6[OH]2[H2O]                     # 1011152 #
#                                                                            #
##############################################################################
#                                                                            #
#                           Pearson's Crystal Data                           #
#      Crystal Structure Database for Inorganic Compounds (on DVD)           #
#                              Release 2017/18                               #
#                  Editors: Pierre Villars and Karin Cenzual                 #
#                                                                            #
#   Copyright (c) ASM International & Material Phases Data System (MPDS),    #
# Switzerland & National Institute for Materials Science (NIMS), Japan, 2017 #
#                   All rights reserved. Version 2017.08                     #
#                                                                            #
#   This copy of Pearson's Crystal Data is licensed to:                      #
#   University of Alberta, Chemistry Department, 1-5 Installations License         #
#                                                                            #
##############################################################################

data_1011152
_audit_creation_date                     2017-12-04
_audit_creation_method
;
Pearson's Crystal Data browser
;
#_database_code_PCD                      1011152

# Entry summary

_chemical_formula_structural
'Cs~2~ Na~6~ Zn~6~ [P O~4~]~6~ [O H]~2~ [H~2~ O]'                             
_chemical_formula_sum                    'Cs2 H3.96 Na6 O26.97 P6 Zn6'
_chemical_name_mineral                   ?
_chemical_compound_source                ?
_chemical_name_structure_type
Cs~2~Na~6~Zn~6~[PO~4~]~6~([OH]~0.67~[H~2~O]~0.33~)~3~,hP54,173                
_chemical_formula_weight                 1417.9

# Bibliographic data

_publ_section_title
;
Microporous cobalto- and zincophosphates with the framework-type of cancrinite
;
_journal_coden_ASTM                      EJMIER
_journal_name_full                       'Eur. J. Mineral.'
_journal_year                            2005
_journal_volume                          17
_journal_page_first                      813
_journal_page_last                       818
_journal_language                        English
loop_
 _publ_author_name
 _publ_author_address
'Bieniok A.'
;
Salzburg University
Institut f\"ur Mineralogie und Materialwissenschaften
Salzburg
Austria
;
'Brendel U.'
;
Salzburg University
Institut f\"ur Mineralogie und Materialwissenschaften
Salzburg
Austria
;
'Paulus E.F.'
;
Frankfurt Johann Wolfgang Goethe University
Institut f\"ur Mineralogie
Frankfurt am Main
Germany
;
'Amthauer G.'
;
Salzburg University
Institut f\"ur Mineralogie und Materialwissenschaften
Salzburg
Austria
;

# Standardized crystallographic data

_cell_length_a                           12.794
_cell_length_b                           12.794
_cell_length_c                           5.066
_cell_angle_alpha                        90
_cell_angle_beta                         90
_cell_angle_gamma                        120
_cell_volume                             718.1
_cell_formula_units_Z                    1
_space_group_IT_number                   173
_space_group_name_H-M_alt                'P 63'
loop_
 _space_group_symop_id
 _space_group_symop_operation_xyz
 1 'x, y, z'
 2 '-x+y, -x, z'
 3 '-x, -y, 1/2+z'
 4 '-y, x-y, z'
 5 'x-y, x, 1/2+z'
 6 'y, -x+y, 1/2+z'
loop_
 _atom_type_symbol
 O
 OH
 OH2
 Na
 P
 Zn
 Cs
loop_
 _atom_site_label
 _atom_site_type_symbol
 _atom_site_symmetry_multiplicity
 _atom_site_Wyckoff_symbol
 _atom_site_fract_x
 _atom_site_fract_y
 _atom_site_fract_z
 _atom_site_occupancy
 O4 O 6 c 0.0256 0.3609 0.1197 1
 O6a1 OH 6 c 0.115 0.069 0.161 0.152076
 O6a2 OH2 6 c 0.115 0.069 0.161 0.075924
 Na Na 6 c 0.1313 0.2706 0.2786 1
 O2 O 6 c 0.3133 0.3858 0.0625 1
 O3 O 6 c 0.3867 0.189 0.1624 1
 P P 6 c 0.4156 0.0948 0.264 1
 Zn Zn 6 c 0.4211 0.3505 0.2629 1
 O1 O 6 c 0.5488 0.14 0.2132 1
 Cs Cs 2 b 0.333333 0.666667 0.2606 1
 O5a1 OH 2 a 0 0 0.0 0.272136
 O5a2 OH2 2 a 0 0 0.0 0.135864
 O5b1 OH 2 a 0 0 0.184 0.262131
 O5b2 OH2 2 a 0 0 0.184 0.130869


_exptl_crystal_colour                    ?
_exptl_crystal_density_meas              ?
_exptl_crystal_density_diffrn            3.28
_cell_measurement_temperature            ?
_cell_measurement_radiation              'X-rays, Mo Ka'
_cell_measurement_reflns_used            ?
_diffrn_ambient_temperature              ?
_diffrn_measurement_device               'automatic diffractometer'
_diffrn_measurement_device_type          'Siemens P4'
_diffrn_radiation_type                   'X-rays, Mo Ka'
_diffrn_reflns_number                    2550
_exptl_absorpt_coefficient_mu            ?
_exptl_absorpt_correction_type           spherical
_computing_structure_solution            'direct methods, Fourier synthesis'
_refine_ls_number_parameters             78
_refine_ls_number_reflns                 749
_refine_ls_R_factor_gt                   0.0329
_refine_ls_wR_factor_gt                  ?

# End of data set 1011152


