##############################################################################
#                                                                            #
# Cs-O-P-Sr        # Cs2Sr[P2O7]                                   #  310416 #
#                                                                            #
##############################################################################
#                                                                            #
#                           Pearson's Crystal Data                           #
#      Crystal Structure Database for Inorganic Compounds (on DVD)           #
#                              Release 2017/18                               #
#                  Editors: Pierre Villars and Karin Cenzual                 #
#                                                                            #
#   Copyright (c) ASM International & Material Phases Data System (MPDS),    #
# Switzerland & National Institute for Materials Science (NIMS), Japan, 2017 #
#                   All rights reserved. Version 2017.08                     #
#                                                                            #
#   This copy of Pearson's Crystal Data is licensed to:                      #
#   University of Alberta, Chemistry Department, 1-5 Installations License         #
#                                                                            #
##############################################################################

data_310416
_audit_creation_date                     2017-12-01
_audit_creation_method
;
Pearson's Crystal Data browser
;
#_database_code_PCD                      310416

# Entry summary

_chemical_formula_structural             'Cs~2~ Sr [P~2~ O~7~]'
_chemical_formula_sum                    'Cs2 O7 P2 Sr'
_chemical_name_mineral                   ?
_chemical_compound_source                ?
_chemical_name_structure_type            K~2~Cd[P~2~O~7~],mS48,15
_chemical_formula_weight                 527.4

# Bibliographic data

_publ_section_title
;
Crystal structures of the double diphosphates Rb~2~SrP~2~O~7~ and Cs~2~SrP~2~O~7~
;
_journal_coden_ASTM                      INOMAF
_journal_name_full                       'Inorg. Mater.'
_journal_year                            1991
_journal_volume                          27
_journal_page_first                      2026
_journal_page_last                       2029
_journal_language                        English
loop_
 _publ_author_name
 _publ_author_address
'Trunov V.K.'
;
Russian Academy of Sciences
All-Union Research Institute of Reagents and Especially Pure Substances
Moscow
Russia
;
'Oboznenko Y.V.'
;
Russian Academy of Sciences
Scientific Research Institute of Chemical Reagents and Ultrapure Chemicals
Moscow
Russia
;
'Sirotinkin S.P.'
;
Moscow M.V. Lomonosov State University
Scientific Research Institute of Chemical Reagents and Ultrapure Chemicals
Moscow
Russia
;
'Tskhelashvili N.B.'
;
Scientific Research Institute of Chemical Reagents and Ultrapure Chemicals
Moscow
Russia
;

# Standardized crystallographic data

_cell_length_a                           10.528
_cell_length_b                           6.081
_cell_length_c                           13.4641
_cell_angle_alpha                        90
_cell_angle_beta                         105.149
_cell_angle_gamma                        90
_cell_volume                             832.03
_cell_formula_units_Z                    4
_space_group_IT_number                   15
_space_group_name_H-M_alt                'C 1 2/c 1'
loop_
 _space_group_symop_id
 _space_group_symop_operation_xyz
 1 'x, y, z'
 2 '-x, -y, -z'
 3 '-x, y, 1/2-z'
 4 'x, -y, 1/2+z'
 5 '1/2+x, 1/2+y, z'
 6 '1/2-x, 1/2-y, -z'
 7 '1/2-x, 1/2+y, 1/2-z'
 8 '1/2+x, 1/2-y, 1/2+z'
loop_
 _atom_type_symbol
 P
 O
 Cs
 Sr
loop_
 _atom_site_label
 _atom_site_type_symbol
 _atom_site_symmetry_multiplicity
 _atom_site_Wyckoff_symbol
 _atom_site_fract_x
 _atom_site_fract_y
 _atom_site_fract_z
 _atom_site_occupancy
 PII P 8 f 0.0386 0.2491 0.3669 1
 O(2)II O 8 f 0.126 0.055 0.415 1
 O(1)II O 8 f 0.099 0.25 0.113 1
 CsII Cs 8 f 0.361 0.2424 0.3345 1
 O(3)II O 8 f 0.395 -0.034 0.128 1
 O(4)II O 4 e 0 0.16 0.25 1
 SrII Sr 4 c 0.25 0.25 0 1


_exptl_crystal_colour                    ?
_exptl_crystal_density_meas              ?
_exptl_crystal_density_diffrn            4.21
_cell_measurement_temperature            ?
_cell_measurement_radiation              X-rays
_cell_measurement_reflns_used            ?
_diffrn_ambient_temperature              ?
_diffrn_measurement_device               'automatic diffractometer'
_diffrn_measurement_device_type          'Enraf-Nonius CAD4'
_diffrn_radiation_type                   X-rays
_diffrn_reflns_number                    ?
_exptl_absorpt_coefficient_mu            ?
_exptl_absorpt_correction_type           yes
_computing_structure_solution            'crystal chemical considerations'
_refine_ls_number_parameters             ?
_refine_ls_number_reflns                 ?
_refine_ls_R_factor_gt                   0.088
_refine_ls_wR_factor_gt                  0.090

# End of data set 310416


