##############################################################################
#                                                                            #
# Cs-S-Sb          # Cs2Sb4S7                                      #  540951 #
#                                                                            #
##############################################################################
#                                                                            #
#                           Pearson's Crystal Data                           #
#      Crystal Structure Database for Inorganic Compounds (on DVD)           #
#                              Release 2017/18                               #
#                  Editors: Pierre Villars and Karin Cenzual                 #
#                                                                            #
#   Copyright (c) ASM International & Material Phases Data System (MPDS),    #
# Switzerland & National Institute for Materials Science (NIMS), Japan, 2017 #
#                   All rights reserved. Version 2017.08                     #
#                                                                            #
#   This copy of Pearson's Crystal Data is licensed to:                      #
#   University of Alberta, Chemistry Department, 1-5 Installations License         #
#                                                                            #
##############################################################################

data_540951
_audit_creation_date                     2017-12-04
_audit_creation_method
;
Pearson's Crystal Data browser
;
#_database_code_PCD                      540951

# Entry summary

_chemical_formula_structural             'Cs~2~ Sb~4~ S~7~'
_chemical_formula_sum                    'Cs2 S7 Sb4'
_chemical_name_mineral                   ?
_chemical_compound_source                ?
_chemical_name_structure_type            Cs~2~Sb~4~S~7~,mP52,14
_chemical_formula_weight                 977.2

# Bibliographic data

_publ_section_title
'Darstellung und Kristallstruktur von Cs~2~Sb~4~S~7~'                         
_journal_coden_ASTM                      ZAACAB
_journal_name_full                       'Z. Anorg. Allg. Chem.'
_journal_year                            1978
_journal_volume                          441
_journal_page_first                      98
_journal_page_last                       102
_journal_language                        German
loop_
 _publ_author_name
 _publ_author_address
'Dittmar G.'
;
Darmstadt University of Technology
Eduard Zintl Institut
Darmstadt
Germany
;
'Sch\"afer H.'
;
Darmstadt University of Technology
Eduard Zintl Institut
Darmstadt
Germany
;

# Standardized crystallographic data

_cell_length_a                           11.112
_cell_length_b                           12.271
_cell_length_c                           11.637
_cell_angle_alpha                        90
_cell_angle_beta                         97.6
_cell_angle_gamma                        90
_cell_volume                             1572.8
_cell_formula_units_Z                    4
_space_group_IT_number                   14
_space_group_name_H-M_alt                'P 1 21/c 1'
loop_
 _space_group_symop_id
 _space_group_symop_operation_xyz
 1 'x, y, z'
 2 '-x, -y, -z'
 3 '-x, 1/2+y, 1/2-z'
 4 'x, 1/2-y, 1/2+z'
loop_
 _atom_type_symbol
 Cs
 S
 Sb
loop_
 _atom_site_label
 _atom_site_type_symbol
 _atom_site_symmetry_multiplicity
 _atom_site_Wyckoff_symbol
 _atom_site_fract_x
 _atom_site_fract_y
 _atom_site_fract_z
 _atom_site_occupancy
 Cs(1) Cs 4 e 0.047 0.4673 0.1935 1
 S(6) S 4 e 0.0889 0.2058 0.4161 1
 Sb(4) Sb 4 e 0.1334 0.1602 0.0772 1
 S(3) S 4 e 0.1731 0.7383 0.3621 1
 Sb(1) Sb 4 e 0.2033 0.6422 0.5533 1
 S(1) S 4 e 0.2374 0.4647 0.4615 1
 S(4) S 4 e 0.2595 0.0063 0.276 1
 S(7) S 4 e 0.2984 0.2715 0.1683 1
 Sb(3) Sb 4 e 0.3056 0.1455 0.4488 1
 S(5) S 4 e 0.3077 0.5248 0.0595 1
 Cs(2) Cs 4 e 0.5263 0.0713 0.1686 1
 S(2) S 4 e 0.5931 0.2961 0.3912 1
 Sb(2) Sb 4 e 0.6443 0.3559 0.0933 1


_exptl_crystal_colour                    red
_exptl_crystal_density_meas              4.09
_exptl_crystal_density_diffrn            4.13
_cell_measurement_temperature            ?
_cell_measurement_radiation              'X-rays, Mo Ka'
_cell_measurement_reflns_used            ?
_diffrn_ambient_temperature              ?
_diffrn_measurement_device               'automatic diffractometer'
_diffrn_measurement_device_type          'STOE STADI 2'
_diffrn_radiation_type                   'X-rays, Mo Ka'
_diffrn_reflns_number                    ?
_exptl_absorpt_coefficient_mu            11.485
_exptl_absorpt_correction_type           yes
_computing_structure_solution            'Patterson and Fourier synthesis'
_refine_ls_number_parameters             ?
_refine_ls_number_reflns                 ?
_refine_ls_R_factor_gt                   0.087
_refine_ls_wR_factor_gt                  ?

# End of data set 540951


