##############################################################################
#                                                                            #
# Cs-F-U           # Cs2UF7                                        #  378935 #
#                                                                            #
##############################################################################
#                                                                            #
#                           Pearson's Crystal Data                           #
#      Crystal Structure Database for Inorganic Compounds (on DVD)           #
#                              Release 2017/18                               #
#                  Editors: Pierre Villars and Karin Cenzual                 #
#                                                                            #
#   Copyright (c) ASM International & Material Phases Data System (MPDS),    #
# Switzerland & National Institute for Materials Science (NIMS), Japan, 2017 #
#                   All rights reserved. Version 2017.08                     #
#                                                                            #
#   This copy of Pearson's Crystal Data is licensed to:                      #
#   University of Alberta, Chemistry Department, 1-5 Installations License         #
#                                                                            #
##############################################################################

data_378935
_audit_creation_date                     2017-12-01
_audit_creation_method
;
Pearson's Crystal Data browser
;
#_database_code_PCD                      378935

# Entry summary

_chemical_formula_structural             'Cs~2~ U F~7~'
_chemical_formula_sum                    'Cs2 F7 U'
_chemical_name_mineral                   ?
_chemical_compound_source                ?
_chemical_name_structure_type            RhPb~2~F~7~,mP40,14
_chemical_formula_weight                 636.8

# Bibliographic data

_publ_section_title
'The uranium pentafluoride-alkali metal fluoride systems'                     
_journal_coden_ASTM                      INOMAF
_journal_name_full                       'Inorg. Mater.'
_journal_year                            1980
_journal_volume                          16
_journal_page_first                      452
_journal_page_last                       459
_journal_language                        English
loop_
 _publ_author_name
 _publ_author_address
'Suglobova I.G.'
;
Saint Petersburg State University
Saint Petersburg
Russia
;
'Fedorov V.L.'
;
Saint Petersburg State University
Saint Petersburg
Russia
;
'Chirkst D.E.'
;
Saint Petersburg State University
Saint Petersburg
Russia
;

# Standardized crystallographic data

_cell_length_a                           6.42
_cell_length_b                           13.61
_cell_length_c                           9.13
_cell_angle_alpha                        90
_cell_angle_beta                         90.
_cell_angle_gamma                        90
_cell_volume                             797.7
_cell_formula_units_Z                    4
_space_group_IT_number                   14
_space_group_name_H-M_alt                'P 1 21/c 1'
loop_
 _space_group_symop_id
 _space_group_symop_operation_xyz
 1 'x, y, z'
 2 '-x, -y, -z'
 3 '-x, 1/2+y, 1/2-z'
 4 'x, 1/2-y, 1/2+z'

# Atomic positions taken from type-defining entry

loop_
 _atom_type_symbol
 F
 U
 Cs
loop_
 _atom_site_label
 _atom_site_type_symbol
 _atom_site_symmetry_multiplicity
 _atom_site_Wyckoff_symbol
 _atom_site_fract_x
 _atom_site_fract_y
 _atom_site_fract_z
 _atom_site_occupancy
 F1 F 4 e 0.009 0.7693 0.1901 1
 F2 F 4 e 0.0825 0.0993 0.1044 1
 F3 F 4 e 0.0948 0.554 0.1352 1
 U1 U 4 e 0.1956 0.1323 0.3143 1
 Cs1 Cs 4 e 0.2683 0.445 0.3485 1
 F4 F 4 e 0.2885 0.3324 0.0257 1
 F5 F 4 e 0.4875 0.2247 0.2763 1
 F6 F 4 e 0.6035 0.1038 0.0059 1
 F7 F 4 e 0.6168 0.4924 0.184 1
 Cs2 Cs 4 e 0.7183 0.2941 0.0502 1


_exptl_crystal_colour                    ?
_exptl_crystal_density_meas              5.24(1)
_exptl_crystal_density_diffrn            5.30
_cell_measurement_temperature            ?
_cell_measurement_radiation              'X-rays, Cu Ka'
_cell_measurement_reflns_used            ?
_diffrn_ambient_temperature              ?
_diffrn_measurement_device               film
_diffrn_measurement_device_type          ?
_diffrn_radiation_type                   ?
_diffrn_reflns_number                    ?
_exptl_absorpt_coefficient_mu            ?
_exptl_absorpt_correction_type           ?
_computing_structure_solution            ?
_refine_ls_number_parameters             ?
_refine_ls_number_reflns                 ?
_refine_ls_R_factor_gt                   ?
_refine_ls_wR_factor_gt                  ?

# Published diffraction lines

loop_
 _refln_index_h
 _refln_index_k
 _refln_index_l
 _refln_d_spacing
 _refln_intensity_meas
 0 0 2 45.4 15
 1 3 0 36.7 100
 1 1 2 36 45
 2 0 0 32.07 35
 2 0 1 30.43 35
 0 5 1 25.9 25
 0 0 4 22.84 25
 0 1 4 22.52 10
 1 6 0 21.39 25
 3 1 1 20.49 40
 2 1 4 18.43 35
 0 0 5 18.23 20

# End of data set 378935


