##############################################################################
#                                                                            #
# Cs-O-U           # Cs2U2O7 rt mon1                               #  383711 #
#                                                                            #
##############################################################################
#                                                                            #
#                           Pearson's Crystal Data                           #
#      Crystal Structure Database for Inorganic Compounds (on DVD)           #
#                              Release 2017/18                               #
#                  Editors: Pierre Villars and Karin Cenzual                 #
#                                                                            #
#   Copyright (c) ASM International & Material Phases Data System (MPDS),    #
# Switzerland & National Institute for Materials Science (NIMS), Japan, 2017 #
#                   All rights reserved. Version 2017.08                     #
#                                                                            #
#   This copy of Pearson's Crystal Data is licensed to:                      #
#   University of Alberta, Chemistry Department, 1-5 Installations License         #
#                                                                            #
##############################################################################

data_383711
_audit_creation_date                     2017-12-01
_audit_creation_method
;
Pearson's Crystal Data browser
;
#_database_code_PCD                      383711

# Entry summary

_chemical_formula_structural             'Cs~2~ U~2~ O~7~'
_chemical_formula_sum                    'Cs2 O7 U2'
_chemical_name_mineral                   ?
_chemical_compound_source                ?
_chemical_name_structure_type            Cs~2~U~2~O~7~,mS22,12
_chemical_formula_weight                 853.9

# Bibliographic data

_publ_section_title
'Investigations on cesium uranates-VI. The crystal structures of Cs~2~U~2~O~7~'
_journal_coden_ASTM                      JINCAO
_journal_name_full                       'J. Inorg. Nucl. Chem.'
_journal_year                            1976
_journal_volume                          38
_journal_page_first                      2105
_journal_page_last                       2107
_journal_language                        English
loop_
 _publ_author_name
 _publ_author_address
'Van Egmond A.B.'
;
Netherlands Reactor Center
Petten
Netherlands
;

# Standardized crystallographic data

_cell_length_a                           14.516
_cell_length_b                           4.3199
_cell_length_c                           7.465
_cell_angle_alpha                        90
_cell_angle_beta                         113.78
_cell_angle_gamma                        90
_cell_volume                             428.37
_cell_formula_units_Z                    2
_space_group_IT_number                   12
_space_group_name_H-M_alt                'C 1 2/m 1'
loop_
 _space_group_symop_id
 _space_group_symop_operation_xyz
 1 'x, y, z'
 2 '-x, -y, -z'
 3 '-x, y, -z'
 4 'x, -y, z'
 5 '1/2+x, 1/2+y, z'
 6 '1/2-x, 1/2-y, -z'
 7 '1/2-x, 1/2+y, -z'
 8 '1/2+x, 1/2-y, z'
loop_
 _atom_type_symbol
 O
 Cs
 U
loop_
 _atom_site_label
 _atom_site_type_symbol
 _atom_site_symmetry_multiplicity
 _atom_site_Wyckoff_symbol
 _atom_site_fract_x
 _atom_site_fract_y
 _atom_site_fract_z
 _atom_site_occupancy
 O2 O 4 i 0.101 0 0.71 1
 O1 O 4 i 0.206 0 0.27 1
 O3 O 4 i 0.294 0 -0.04 1
 Cs Cs 4 i 0.3978 0 0.584 1
 U U 4 i 0.8526 0 0.004 1
 O4 O 2 a 0 0 0 1


_exptl_crystal_colour                    ?
_exptl_crystal_density_meas              ?
_exptl_crystal_density_diffrn            6.62
_cell_measurement_temperature            ?
_cell_measurement_radiation              'X-rays, Cu Ka'
_cell_measurement_reflns_used            ?
_diffrn_ambient_temperature              ?
_diffrn_measurement_device               'automatic diffractometer'
_diffrn_measurement_device_type          Philips
_diffrn_radiation_type                   'X-rays, Cu Ka'
_diffrn_reflns_number                    ?
_diffrn_reflns_theta_min                 0
_diffrn_reflns_theta_max                 31
_pd_proc_2theta_range_min                0
_pd_proc_2theta_range_max                62
_exptl_absorpt_coefficient_mu            ?
_exptl_absorpt_correction_type           ?
_computing_structure_solution            'Patterson and Fourier synthesis'
_refine_ls_number_parameters             ?
_refine_ls_number_reflns                 ?
_refine_ls_R_factor_gt                   0.053
_refine_ls_wR_factor_gt                  ?
_pd_proc_ls_proof_R_factor               ?
_pd_proc_ls_proof_wR_factor              ?
_refine_ls_R_I_factor                    ?

# End of data set 383711


