##############################################################################
#                                                                            #
# Cl-Cs-U          # Cs2UCl7                                       #  306180 #
#                                                                            #
##############################################################################
#                                                                            #
#                           Pearson's Crystal Data                           #
#      Crystal Structure Database for Inorganic Compounds (on DVD)           #
#                              Release 2017/18                               #
#                  Editors: Pierre Villars and Karin Cenzual                 #
#                                                                            #
#   Copyright (c) ASM International & Material Phases Data System (MPDS),    #
# Switzerland & National Institute for Materials Science (NIMS), Japan, 2017 #
#                   All rights reserved. Version 2017.08                     #
#                                                                            #
#   This copy of Pearson's Crystal Data is licensed to:                      #
#   University of Alberta, Chemistry Department, 1-5 Installations License         #
#                                                                            #
##############################################################################

data_306180
_audit_creation_date                     2017-12-01
_audit_creation_method
;
Pearson's Crystal Data browser
;
#_database_code_PCD                      306180

# Entry summary

_chemical_formula_structural             'Cs~2~ U Cl~7~'
_chemical_formula_sum                    'Cl7 Cs2 U'
_chemical_name_mineral                   ?
_chemical_compound_source                ?
_chemical_name_structure_type            K~2~NbF~7~,mP40,14
_chemical_formula_weight                 752.0

# Bibliographic data

_publ_section_title
'Complex formation in alkali metal chloride-uranium(V) chloride systems'      
_journal_coden_ASTM                      RJICAQ
_journal_name_full                       'Russ. J. Inorg. Chem.'
_journal_year                            1982
_journal_volume                          27
_journal_page_first                      106
_journal_page_last                       109
_journal_language                        English
loop_
 _publ_author_name
 _publ_author_address
'Suglobova I.G.'
;
Saint Petersburg Leningrad Zhdanov State University
Department of Crystallography
Saint Petersburg
Russia
;
'Fedorov V.L.'
;
Saint Petersburg State University
Saint Petersburg
Russia
;
'Chirkst D.E.'
;
Saint Petersburg State University
Saint Petersburg
Russia
;

# Standardized crystallographic data

_cell_length_a                           7.56
_cell_length_b                           15.95
_cell_length_c                           10.71
_cell_angle_alpha                        90
_cell_angle_beta                         90.
_cell_angle_gamma                        90
_cell_volume                             1291.4
_cell_formula_units_Z                    4
_space_group_IT_number                   14
_space_group_name_H-M_alt                'P 1 21/c 1'
loop_
 _space_group_symop_id
 _space_group_symop_operation_xyz
 1 'x, y, z'
 2 '-x, -y, -z'
 3 '-x, 1/2+y, 1/2-z'
 4 'x, 1/2-y, 1/2+z'

# Atomic positions taken from type-defining entry

loop_
 _atom_type_symbol
 Cl
 Cs
 U
loop_
 _atom_site_label
 _atom_site_type_symbol
 _atom_site_symmetry_multiplicity
 _atom_site_Wyckoff_symbol
 _atom_site_fract_x
 _atom_site_fract_y
 _atom_site_fract_z
 _atom_site_occupancy
 Cl1 Cl 4 e 0.0448 0.1072 0.388 1
 Cl2 Cl 4 e 0.0463 0.2431 0.1994 1
 Cl3 Cl 4 e 0.1875 0.1216 0.0063 1
 Cl4 Cl 4 e 0.2166 0.5207 0.7159 1
 Cs1 Cs 4 e 0.2374 0.7845 0.0554 1
 Cs2 Cs 4 e 0.2397 0.4404 0.1833 1
 U1 U 4 e 0.2718 0.1288 0.2229 1
 Cl5 Cl 4 e 0.4573 0.2567 0.2114 1
 Cl6 Cl 4 e 0.4599 0.1107 0.4101 1
 Cl7 Cl 4 e 0.5572 0.0792 0.1317 1


_exptl_crystal_colour                    green
_exptl_crystal_density_meas              3.78(1)
_exptl_crystal_density_diffrn            3.87
_cell_measurement_temperature            ?
_cell_measurement_radiation              'X-rays, Cu Ka'
_cell_measurement_reflns_used            ?
_diffrn_ambient_temperature              ?
_diffrn_measurement_device               film
_diffrn_measurement_device_type          ?
_diffrn_radiation_type                   ?
_diffrn_reflns_number                    ?
_exptl_absorpt_coefficient_mu            ?
_exptl_absorpt_correction_type           ?
_computing_structure_solution            ?
_refine_ls_number_parameters             ?
_refine_ls_number_reflns                 ?
_refine_ls_R_factor_gt                   ?
_refine_ls_wR_factor_gt                  ?

# Published diffraction lines

loop_
 _refln_index_h
 _refln_index_k
 _refln_index_l
 _refln_d_spacing
 _refln_intensity_meas
 0 2 1 62.1 10
 1 1 1 58.3 15
 0 0 2 53.2 30
 0 1 2 50 75
 0 2 2 44.5 20
 0 4 0 40 20
 2 1 1 34.9 70
 2 0 2 31 50
 1 5 0 29.1 20
 1 5 1 28.4 100
 0 0 4 26.8 25
 2 5 0 24.33 20
 2 0 4 21.95 80
 0 2 5 20.77 20
 0 8 0 20.04 20
 2 1 5 18.53 50
 0 0 6 17.87 15
 1 5 5 17.3 15
 3 0 5 16.32 15
 1 9 3 15.52 30
 3 6 4 15.09 15
 0 9 5 13.65 15

# End of data set 306180


