##############################################################################
#                                                                            #
# Cs-Cu-Se         # Cs3Cu8Se6                                     #  462292 #
#                                                                            #
##############################################################################
#                                                                            #
#                           Pearson's Crystal Data                           #
#      Crystal Structure Database for Inorganic Compounds (on DVD)           #
#                              Release 2017/18                               #
#                  Editors: Pierre Villars and Karin Cenzual                 #
#                                                                            #
#   Copyright (c) ASM International & Material Phases Data System (MPDS),    #
# Switzerland & National Institute for Materials Science (NIMS), Japan, 2017 #
#                   All rights reserved. Version 2017.08                     #
#                                                                            #
#   This copy of Pearson's Crystal Data is licensed to:                      #
#   University of Alberta, Chemistry Department, 1-5 Installations License         #
#                                                                            #
##############################################################################

data_462292
_audit_creation_date                     2017-12-01
_audit_creation_method
;
Pearson's Crystal Data browser
;
#_database_code_PCD                      462292

# Entry summary

_chemical_formula_structural             'Cs~3~ Cu~8~ Se~6~'
_chemical_formula_sum                    'Cs3 Cu8 Se6'
_chemical_name_mineral                   ?
_chemical_compound_source                ?
_chemical_name_structure_type            Rb~3~Cu~8~Se~6~,mS34,12
_chemical_formula_weight                 1380.8

# Bibliographic data

_publ_section_title                      'Tern\"are Selenide des Kupfers'
_journal_coden_ASTM                      ZAACAB
_journal_name_full                       'Z. Anorg. Allg. Chem.'
_journal_year                            1979
_journal_volume                          456
_journal_page_first                      187
_journal_page_last                       193
_journal_language                        German
loop_
 _publ_author_name
 _publ_author_address
'Schils H.W.'
;
Aachen RWTH University
Institut f\"ur Anorganische Chemie
Aachen
Germany
;
'Bronger W.'
;
Aachen RWTH University
Institut f\"ur Anorganische Chemie
Aachen
Germany
;

# Standardized crystallographic data

_cell_length_a                           19.076
_cell_length_b                           4.078
_cell_length_c                           10.449
_cell_angle_alpha                        90
_cell_angle_beta                         106.04
_cell_angle_gamma                        90
_cell_volume                             781.2
_cell_formula_units_Z                    2
_space_group_IT_number                   12
_space_group_name_H-M_alt                'C 1 2/m 1'
loop_
 _space_group_symop_id
 _space_group_symop_operation_xyz
 1 'x, y, z'
 2 '-x, -y, -z'
 3 '-x, y, -z'
 4 'x, -y, z'
 5 '1/2+x, 1/2+y, z'
 6 '1/2-x, 1/2-y, -z'
 7 '1/2-x, 1/2+y, -z'
 8 '1/2+x, 1/2-y, z'
loop_
 _atom_type_symbol
 Se
 Cu
 Cs
loop_
 _atom_site_label
 _atom_site_type_symbol
 _atom_site_symmetry_multiplicity
 _atom_site_Wyckoff_symbol
 _atom_site_fract_x
 _atom_site_fract_y
 _atom_site_fract_z
 _atom_site_occupancy
 Se2 Se 4 i 0.0304 0 0.2992 1
 Cu4 Cu 4 i 0.0783 0 0.539 1
 Cu2 Cu 4 i 0.109 0 0.784 1
 Se1 Se 4 i 0.1599 0 0.0184 1
 Cu1 Cu 4 i 0.29301 0 0.08 1
 Se3 Se 4 i 0.3492 0 0.3504 1
 Cu3 Cu 4 i 0.4776 0 0.359 1
 Cs2 Cs 4 i 0.6887 0 0.3101 1
 Cs1 Cs 2 b 0 0.5 0 1


_exptl_crystal_colour                    black
_exptl_crystal_density_meas              ?
_exptl_crystal_density_diffrn            5.87
_cell_measurement_temperature            ?
_cell_measurement_radiation              X-rays
_cell_measurement_reflns_used            ?
_diffrn_ambient_temperature              ?
_diffrn_measurement_device               'automatic diffractometer'
_diffrn_measurement_device_type          'Enraf-Nonius CAD4'
_diffrn_radiation_type                   'X-rays, Mo Ka'
_diffrn_reflns_number                    ?
_diffrn_reflns_theta_min                 3
_diffrn_reflns_theta_max                 30
_exptl_absorpt_coefficient_mu            ?
_exptl_absorpt_correction_type           ?
_computing_structure_solution            'Patterson and Fourier synthesis'
_refine_ls_number_parameters             ?
_refine_ls_number_reflns                 287
_refine_ls_R_factor_gt                   0.066
_refine_ls_wR_factor_gt                  ?

# End of data set 462292


