##############################################################################
#                                                                            #
# Cl-Cs-Fe         # Cs3Fe2Cl9                                     #  559741 #
#                                                                            #
##############################################################################
#                                                                            #
#                           Pearson's Crystal Data                           #
#      Crystal Structure Database for Inorganic Compounds (on DVD)           #
#                              Release 2017/18                               #
#                  Editors: Pierre Villars and Karin Cenzual                 #
#                                                                            #
#   Copyright (c) ASM International & Material Phases Data System (MPDS),    #
# Switzerland & National Institute for Materials Science (NIMS), Japan, 2017 #
#                   All rights reserved. Version 2017.08                     #
#                                                                            #
#   This copy of Pearson's Crystal Data is licensed to:                      #
#   University of Alberta, Chemistry Department, 1-5 Installations License         #
#                                                                            #
##############################################################################

data_559741
_audit_creation_date                     2017-12-04
_audit_creation_method
;
Pearson's Crystal Data browser
;
#_database_code_PCD                      559741

# Entry summary

_chemical_formula_structural             'Cs~3~ Fe~2~ Cl~9~'
_chemical_formula_sum                    'Cl9 Cs3 Fe2'
_chemical_name_mineral                   ?
_chemical_compound_source                ?
_chemical_name_structure_type            Cs~3~Cr~2~Cl~9~,hP28,194
_chemical_formula_weight                 829.5

# Bibliographic data

_publ_section_title
;
The iron trichloride-cesium chloride phase diagram, the crystal structure of cesium enneachlorodiferrate: Cs~3~Fe~2~Cl~9~
;
_journal_coden_ASTM                      JINCAO
_journal_name_full                       'J. Inorg. Nucl. Chem.'
_journal_year                            1978
_journal_volume                          40
_journal_page_first                      2009
_journal_page_last                       2011
_journal_language                        English
loop_
 _publ_author_name
 _publ_author_address
'Kovsarnechan M.T.'
;
Montpellier Languedoc University of Science and Technology
Laboratoire des Acides Min\'eraux
Montpellier
France
;
'Rozi\`ere J.'
;
Montpellier Languedoc University of Science and Technology
Laboratoire des Acides Min\'eraux
Montpellier
France
;
'Mascherpa Corral D.'
;
Montpellier Languedoc University of Science and Technology
Laboratoire des Acides Min\'eraux
Montpellier
France
;

# Standardized crystallographic data

_cell_length_a                           7.235
_cell_length_b                           7.235
_cell_length_c                           17.78
_cell_angle_alpha                        90
_cell_angle_beta                         90
_cell_angle_gamma                        120
_cell_volume                             806
_cell_formula_units_Z                    2
_space_group_IT_number                   194
_space_group_name_H-M_alt                'P 63/m m c'
loop_
 _space_group_symop_id
 _space_group_symop_operation_xyz
 1 'x, y, z'
 2 '-x+y, -x, 1/2-z'
 3 '-x+y, -x, z'
 4 '-x+y, y, 1/2-z'
 5 '-x+y, y, z'
 6 '-x, -x+y, -z'
 7 '-x, -x+y, 1/2+z'
 8 '-x, -y, -z'
 9 '-x, -y, 1/2+z'
 10 '-y, -x, 1/2-z'
 11 '-y, -x, z'
 12 '-y, x-y, 1/2-z'
 13 '-y, x-y, z'
 14 'x, x-y, 1/2-z'
 15 'x, x-y, z'
 16 'x, y, 1/2-z'
 17 'x-y, -y, -z'
 18 'x-y, -y, 1/2+z'
 19 'x-y, x, -z'
 20 'x-y, x, 1/2+z'
 21 'y, -x+y, -z'
 22 'y, -x+y, 1/2+z'
 23 'y, x, -z'
 24 'y, x, 1/2+z'
loop_
 _atom_type_symbol
 Cl
 Cs
 Fe
loop_
 _atom_site_label
 _atom_site_type_symbol
 _atom_site_symmetry_multiplicity
 _atom_site_Wyckoff_symbol
 _atom_site_fract_x
 _atom_site_fract_y
 _atom_site_fract_z
 _atom_site_occupancy
 Cl(2) Cl 12 k 0.177 0.354 0.5894 1
 Cl(1) Cl 6 h 0.5172 0.0344 0.25 1
 Cs(2) Cs 4 f 0.333333 0.666667 0.0831 1
 Fe Fe 4 f 0.333333 0.666667 0.6538 1
 Cs(1) Cs 2 b 0 0 0.25 1


_exptl_crystal_colour                    ?
_exptl_crystal_density_meas              ?
_exptl_crystal_density_diffrn            3.42
_cell_measurement_temperature            ?
_cell_measurement_radiation              'X-rays, Mo Ka'
_cell_measurement_wavelength             0.71069
_cell_measurement_reflns_used            ?
_diffrn_ambient_temperature              ?
_diffrn_measurement_device               'automatic diffractometer'
_diffrn_measurement_device_type          'Enraf-Nonius CAD4'
_diffrn_radiation_type                   'X-rays, Mo Ka'
_diffrn_radiation_wavelength             0.71069
_diffrn_reflns_number                    ?
_diffrn_reflns_theta_min                 0
_diffrn_reflns_theta_max                 30
_exptl_absorpt_coefficient_mu            8.7
_exptl_absorpt_correction_type           ?
_computing_structure_solution            'Patterson and Fourier synthesis'
_refine_ls_number_parameters             20
_refine_ls_number_reflns                 358
_refine_ls_R_factor_gt                   0.045
_refine_ls_wR_factor_gt                  0.057

# End of data set 559741


