##############################################################################
#                                                                            #
# Cs-Ge-Te         # Cs4GeTe6                                      #  462182 #
#                                                                            #
##############################################################################
#                                                                            #
#                           Pearson's Crystal Data                           #
#      Crystal Structure Database for Inorganic Compounds (on DVD)           #
#                              Release 2017/18                               #
#                  Editors: Pierre Villars and Karin Cenzual                 #
#                                                                            #
#   Copyright (c) ASM International & Material Phases Data System (MPDS),    #
# Switzerland & National Institute for Materials Science (NIMS), Japan, 2017 #
#                   All rights reserved. Version 2017.08                     #
#                                                                            #
#   This copy of Pearson's Crystal Data is licensed to:                      #
#   University of Alberta, Chemistry Department, 1-5 Installations License         #
#                                                                            #
##############################################################################

data_462182
_audit_creation_date                     2017-12-01
_audit_creation_method
;
Pearson's Crystal Data browser
;
#_database_code_PCD                      462182

# Entry summary

_chemical_formula_structural             'Cs~4~ Ge Te~6~'
_chemical_formula_sum                    'Cs4 Ge Te6'
_chemical_name_mineral                   ?
_chemical_compound_source                ?
_chemical_name_structure_type            Cs~4~GeTe~6~,mP44,14
_chemical_formula_weight                 1369.8

# Bibliographic data

_publ_section_title
'Cs~4~GeTe~6~, ein o-Pertelluridogermanat(IV)'                                
_journal_coden_ASTM                      MRBUAC
_journal_name_full                       'Mater. Res. Bull.'
_journal_year                            1985
_journal_volume                          20
_journal_page_first                      1207
_journal_page_last                       1211
_journal_language                        German
loop_
 _publ_author_name
 _publ_author_address
'Brinkmann C.'
;
Darmstadt University of Technology
Institut f\"ur Anorganische Chemie
Darmstadt
Germany
;
'Eisenmann B.'
;
Darmstadt University of Technology
Institut f\"ur Anorganische Chemie
Darmstadt
Germany
;
'Sch\"afer H.'
;
Darmstadt University of Technology
Institut f\"ur Anorganische Chemie
Darmstadt
Germany
;

# Standardized crystallographic data

_cell_length_a                           7.867
_cell_length_b                           13.981
_cell_length_c                           17.9966
_cell_angle_alpha                        90
_cell_angle_beta                         103.754
_cell_angle_gamma                        90
_cell_volume                             1922.7
_cell_formula_units_Z                    4
_space_group_IT_number                   14
_space_group_name_H-M_alt                'P 1 21/c 1'
loop_
 _space_group_symop_id
 _space_group_symop_operation_xyz
 1 'x, y, z'
 2 '-x, -y, -z'
 3 '-x, 1/2+y, 1/2-z'
 4 'x, 1/2-y, 1/2+z'
loop_
 _atom_type_symbol
 Cs
 Te
 Ge
loop_
 _atom_site_label
 _atom_site_type_symbol
 _atom_site_symmetry_multiplicity
 _atom_site_Wyckoff_symbol
 _atom_site_fract_x
 _atom_site_fract_y
 _atom_site_fract_z
 _atom_site_occupancy
 Cs4 Cs 4 e 0.0192 0.3226 0.3727 1
 Te4 Te 4 e 0.023 0.2274 0.1684 1
 Te6 Te 4 e 0.0796 0.0767 0.0794 1
 Te1 Te 4 e 0.1458 0.5093 0.1979 1
 Ge1 Ge 4 e 0.2598 0.3541 0.155 1
 Te2 Te 4 e 0.3376 0.3436 0.0259 1
 Cs1 Cs 4 e 0.3446 0.0581 0.3023 1
 Te5 Te 4 e 0.5096 0.2999 0.3871 1
 Te3 Te 4 e 0.5582 0.2983 0.2416 1
 Cs3 Cs 4 e 0.5849 0.0882 0.0979 1
 Cs2 Cs 4 e 0.8111 0.3931 0.003 1


_exptl_crystal_colour                    black
_exptl_crystal_density_meas              ?
_exptl_crystal_density_diffrn            4.73
_cell_measurement_temperature            ?
_cell_measurement_radiation              'X-rays, Mo Ka'
_cell_measurement_reflns_used            25
_diffrn_ambient_temperature              ?
_diffrn_measurement_device               'automatic diffractometer'
_diffrn_measurement_device_type          'Philips PW1100'
_diffrn_radiation_type                   'X-rays, Mo Ka'
_diffrn_reflns_number                    6526
_diffrn_reflns_theta_min                 2.5
_diffrn_reflns_theta_max                 27
_exptl_absorpt_coefficient_mu            17.568
_exptl_absorpt_correction_type           yes
_computing_structure_solution            'direct methods'
_refine_ls_number_parameters             100
_refine_ls_number_reflns                 571
_refine_ls_R_factor_gt                   0.069
_refine_ls_wR_factor_gt                  ?

# End of data set 462182


