##############################################################################
#                                                                            #
# Cs-Sn-Te         # Cs4Sn2Te7                                     #  462181 #
#                                                                            #
##############################################################################
#                                                                            #
#                           Pearson's Crystal Data                           #
#      Crystal Structure Database for Inorganic Compounds (on DVD)           #
#                              Release 2017/18                               #
#                  Editors: Pierre Villars and Karin Cenzual                 #
#                                                                            #
#   Copyright (c) ASM International & Material Phases Data System (MPDS),    #
# Switzerland & National Institute for Materials Science (NIMS), Japan, 2017 #
#                   All rights reserved. Version 2017.08                     #
#                                                                            #
#   This copy of Pearson's Crystal Data is licensed to:                      #
#   University of Alberta, Chemistry Department, 1-5 Installations License         #
#                                                                            #
##############################################################################

data_462181
_audit_creation_date                     2017-12-01
_audit_creation_method
;
Pearson's Crystal Data browser
;
#_database_code_PCD                      462181

# Entry summary

_chemical_formula_structural             'Cs~4~ Sn~2~ Te~7~'
_chemical_formula_sum                    'Cs4 Sn2 Te7'
_chemical_name_mineral                   ?
_chemical_compound_source                ?
_chemical_name_structure_type            Cs~4~Sn~2~Te~7~,mS52,15
_chemical_formula_weight                 1662.2

# Bibliographic data

_publ_section_title
;
Neue Polytelluridostannate(IV): Zur Kenntnis von Rb~2~SnTe~5~ und Cs~4~Sn~2~Te~7~
;
_journal_coden_ASTM                      MRBUAC
_journal_name_full                       'Mater. Res. Bull.'
_journal_year                            1985
_journal_volume                          20
_journal_page_first                      299
_journal_page_last                       307
_journal_language                        German
loop_
 _publ_author_name
 _publ_author_address
'Brinkmann C.'
;
Darmstadt University of Technology
Institut f\"ur Anorganische Chemie
Darmstadt
Germany
;
'Eisenmann B.'
;
Darmstadt University of Technology
Institut f\"ur Anorganische Chemie
Darmstadt
Germany
;
'Sch\"afer H.'
;
Darmstadt University of Technology
Institut f\"ur Anorganische Chemie
Darmstadt
Germany
;

# Standardized crystallographic data

_cell_length_a                           16.491
_cell_length_b                           7.86
_cell_length_c                           19.036
_cell_angle_alpha                        90
_cell_angle_beta                         105.5
_cell_angle_gamma                        90
_cell_volume                             2377.7
_cell_formula_units_Z                    4
_space_group_IT_number                   15
_space_group_name_H-M_alt                'C 1 2/c 1'
loop_
 _space_group_symop_id
 _space_group_symop_operation_xyz
 1 'x, y, z'
 2 '-x, -y, -z'
 3 '-x, y, 1/2-z'
 4 'x, -y, 1/2+z'
 5 '1/2+x, 1/2+y, z'
 6 '1/2-x, 1/2-y, -z'
 7 '1/2-x, 1/2+y, 1/2-z'
 8 '1/2+x, 1/2-y, 1/2+z'
loop_
 _atom_type_symbol
 Sn
 Te
 Cs
loop_
 _atom_site_label
 _atom_site_type_symbol
 _atom_site_symmetry_multiplicity
 _atom_site_Wyckoff_symbol
 _atom_site_fract_x
 _atom_site_fract_y
 _atom_site_fract_z
 _atom_site_occupancy
 Sn1 Sn 8 f 0.0462 0.2667 0.153 1
 Te1 Te 8 f 0.0853 0.2776 0.4654 1
 Te2 Te 8 f 0.2027 0.2053 0.1423 1
 Cs1 Cs 8 f 0.2453 0.2166 0.3526 1
 Cs2 Cs 8 f 0.4085 0.2719 0.0635 1
 Te3 Te 8 f 0.4239 0.0664 0.2646 1
 Te4 Te 4 e 0 0.0412 0.25 1


_exptl_crystal_colour                    black
_exptl_crystal_density_meas              4.64
_exptl_crystal_density_diffrn            4.64
_cell_measurement_temperature            ?
_cell_measurement_radiation              'X-rays, Mo Ka'
_cell_measurement_reflns_used            ?
_diffrn_ambient_temperature              ?
_diffrn_measurement_device               'automatic diffractometer'
_diffrn_measurement_device_type          'Philips PW1100'
_diffrn_radiation_type                   'X-rays, Mo Ka'
_diffrn_reflns_number                    6852
_diffrn_reflns_theta_min                 2.5
_diffrn_reflns_theta_max                 30
_exptl_absorpt_coefficient_mu            16.622
_exptl_absorpt_correction_type           empirical
_computing_structure_solution            'direct methods'
_refine_ls_number_parameters             ?
_refine_ls_number_reflns                 3026
_refine_ls_R_factor_gt                   0.082
_refine_ls_wR_factor_gt                  ?

# End of data set 462181


