##############################################################################
#                                                                            #
# Ag-Cs-S          # CsAg3S2                                       #  540937 #
#                                                                            #
##############################################################################
#                                                                            #
#                           Pearson's Crystal Data                           #
#      Crystal Structure Database for Inorganic Compounds (on DVD)           #
#                              Release 2017/18                               #
#                  Editors: Pierre Villars and Karin Cenzual                 #
#                                                                            #
#   Copyright (c) ASM International & Material Phases Data System (MPDS),    #
# Switzerland & National Institute for Materials Science (NIMS), Japan, 2017 #
#                   All rights reserved. Version 2017.08                     #
#                                                                            #
#   This copy of Pearson's Crystal Data is licensed to:                      #
#   University of Alberta, Chemistry Department, 1-5 Installations License         #
#                                                                            #
##############################################################################

data_540937
_audit_creation_date                     2017-12-04
_audit_creation_method
;
Pearson's Crystal Data browser
;
#_database_code_PCD                      540937

# Entry summary

_chemical_formula_structural             'Cs Ag~3~ S~2~'
_chemical_formula_sum                    'Ag3 Cs S2'
_chemical_name_mineral                   ?
_chemical_compound_source                ?
_chemical_name_structure_type            CsAg~3~S~2~,mS24,12
_chemical_formula_weight                 520.6

# Bibliographic data

_publ_section_title
'\"Uber die Struktur von CsAg~3~S~2~ und RbAg~3~S~2~'                         
_journal_coden_ASTM                      ZAACAB
_journal_name_full                       'Z. Anorg. Allg. Chem.'
_journal_year                            1977
_journal_volume                          430
_journal_page_first                      61
_journal_page_last                       65
_journal_language                        German
loop_
 _publ_author_name
 _publ_author_address
'Burschka C.'
;
Aachen RWTH University
Institut f\"ur Anorganische Chemie
Aachen
Germany
;
'Bronger W.'
;
Aachen RWTH University
Institut f\"ur Anorganische Chemie
Aachen
Germany
;

# Standardized crystallographic data

_cell_length_a                           16.175
_cell_length_b                           4.325
_cell_length_c                           8.98
_cell_angle_alpha                        90
_cell_angle_beta                         113.
_cell_angle_gamma                        90
_cell_volume                             578.3
_cell_formula_units_Z                    4
_space_group_IT_number                   12
_space_group_name_H-M_alt                'C 1 2/m 1'
loop_
 _space_group_symop_id
 _space_group_symop_operation_xyz
 1 'x, y, z'
 2 '-x, -y, -z'
 3 '-x, y, -z'
 4 'x, -y, z'
 5 '1/2+x, 1/2+y, z'
 6 '1/2-x, 1/2-y, -z'
 7 '1/2-x, 1/2+y, -z'
 8 '1/2+x, 1/2-y, z'
loop_
 _atom_type_symbol
 Ag
 Cs
 S
loop_
 _atom_site_label
 _atom_site_type_symbol
 _atom_site_symmetry_multiplicity
 _atom_site_Wyckoff_symbol
 _atom_site_fract_x
 _atom_site_fract_y
 _atom_site_fract_z
 _atom_site_occupancy
 Ag3 Ag 4 i 0.0564 0 0.3972 1
 Cs Cs 4 i 0.1356 0 0.0428 1
 S1 S 4 i 0.1924 0 0.6833 1
 Ag2 Ag 4 i 0.3114 0 0.5752 1
 Ag1 Ag 4 i 0.4046 0 0.3527 1
 S2 S 4 i 0.5215 0 0.2342 1


_exptl_crystal_colour                    ?
_exptl_crystal_density_meas              5.97
_exptl_crystal_density_diffrn            5.98
_cell_measurement_temperature            ?
_cell_measurement_radiation              'X-rays, Cu Ka1'
_cell_measurement_reflns_used            40
_diffrn_ambient_temperature              ?
_diffrn_measurement_device               'automatic diffractometer'
_diffrn_measurement_device_type          ?
_diffrn_radiation_type                   'X-rays, Ag Ka'
_diffrn_reflns_number                    1306
_exptl_absorpt_coefficient_mu            8.48
_exptl_absorpt_correction_type           analytical
_computing_structure_solution            'direct methods'
_refine_ls_number_parameters             ?
_refine_ls_number_reflns                 422
_refine_ls_R_factor_gt                   0.06
_refine_ls_wR_factor_gt                  0.037

# End of data set 540937


