##############################################################################
#                                                                            #
# Cd-Cl-Cs         # CsCdCl3 ht                                    #  379393 #
#                                                                            #
##############################################################################
#                                                                            #
#                           Pearson's Crystal Data                           #
#      Crystal Structure Database for Inorganic Compounds (on DVD)           #
#                              Release 2017/18                               #
#                  Editors: Pierre Villars and Karin Cenzual                 #
#                                                                            #
#   Copyright (c) ASM International & Material Phases Data System (MPDS),    #
# Switzerland & National Institute for Materials Science (NIMS), Japan, 2017 #
#                   All rights reserved. Version 2017.08                     #
#                                                                            #
#   This copy of Pearson's Crystal Data is licensed to:                      #
#   University of Alberta, Chemistry Department, 1-5 Installations License         #
#                                                                            #
##############################################################################

data_379393
_audit_creation_date                     2017-12-01
_audit_creation_method
;
Pearson's Crystal Data browser
;
#_database_code_PCD                      379393

# Entry summary

_chemical_formula_structural             'Cs Cd Cl~3~'
_chemical_formula_sum                    'Cd Cl3 Cs'
_chemical_name_mineral                   ?
_chemical_compound_source                ?
_chemical_name_structure_type            BaTiO~3~,hP30,194
_chemical_formula_weight                 351.7
_chemical_melting_point                  843

# Bibliographic data

_publ_section_title
;
Homogeneity regions, preparation, and analysis of single crystals of some compounds of the systems Cs(Tl)X-Ge(Sn,Pb,Cd)X~2~, where X= Cl, Br, I
;
_journal_coden_ASTM                      INOMAF
_journal_name_full                       'Inorg. Mater.'
_journal_year                            1985
_journal_volume                          21
_journal_page_first                      672
_journal_page_last                       676
_journal_language                        English
loop_
 _publ_author_name
 _publ_author_address
'Peresh E.Y.'
;
Uzhhorod State University
Uzhhorod
Ukraine
;
'Lazarev V.B.'
;
Russian Academy of Sciences
Kurnakov N.S. Institute of General and Inorganic Chemistry
Moscow
Russia
;
'Tsigika V.V.'
;
Uzhhorod State University
Uzhhorod
Ukraine
;
'Orinchai A.V.'
;
Uzhhorod State University
Uzhhorod
Ukraine
;
'Balog I.S.'
;
Uzhhorod State University
Uzhhorod
Ukraine
;
'Tkachenko V.I.'
;
Uzhhorod State University
Uzhhorod
Ukraine
;
'Pogoida I.I.'
;
Uzhhorod State University
Uzhhorod
Ukraine
;

# Standardized crystallographic data

_cell_length_a                           7.418
_cell_length_b                           7.418
_cell_length_c                           19.39
_cell_angle_alpha                        90
_cell_angle_beta                         90
_cell_angle_gamma                        120
_cell_volume                             924
_cell_formula_units_Z                    6
_space_group_IT_number                   194
_space_group_name_H-M_alt                'P 63/m m c'
loop_
 _space_group_symop_id
 _space_group_symop_operation_xyz
 1 'x, y, z'
 2 '-x+y, -x, 1/2-z'
 3 '-x+y, -x, z'
 4 '-x+y, y, 1/2-z'
 5 '-x+y, y, z'
 6 '-x, -x+y, -z'
 7 '-x, -x+y, 1/2+z'
 8 '-x, -y, -z'
 9 '-x, -y, 1/2+z'
 10 '-y, -x, 1/2-z'
 11 '-y, -x, z'
 12 '-y, x-y, 1/2-z'
 13 '-y, x-y, z'
 14 'x, x-y, 1/2-z'
 15 'x, x-y, z'
 16 'x, y, 1/2-z'
 17 'x-y, -y, -z'
 18 'x-y, -y, 1/2+z'
 19 'x-y, x, -z'
 20 'x-y, x, 1/2+z'
 21 'y, -x+y, -z'
 22 'y, -x+y, 1/2+z'
 23 'y, x, -z'
 24 'y, x, 1/2+z'

# Atomic positions taken from type-defining entry

loop_
 _atom_type_symbol
 Cl
 Cs
 Cd
loop_
 _atom_site_label
 _atom_site_type_symbol
 _atom_site_symmetry_multiplicity
 _atom_site_Wyckoff_symbol
 _atom_site_fract_x
 _atom_site_fract_y
 _atom_site_fract_z
 _atom_site_occupancy
 Cl1 Cl 12 k 0.1651 0.3302 0.5802 1
 Cl2 Cl 6 h 0.5185 0.037 0.25 1
 Cs1 Cs 4 f 0.333333 0.666667 0.09671 1
 Cd1 Cd 4 f 0.333333 0.666667 0.65367 1
 Cs2 Cs 2 b 0 0 0.25 1
 Cd2 Cd 2 a 0 0 0 1


_exptl_crystal_colour                    ?
_exptl_crystal_density_meas              ?
_exptl_crystal_density_diffrn            3.79
_cell_measurement_temperature            ?
_cell_measurement_radiation              X-rays
_cell_measurement_reflns_used            ?
_diffrn_ambient_temperature              ?
_diffrn_measurement_device               film
_diffrn_measurement_device_type          ?
_diffrn_radiation_type                   ?
_diffrn_reflns_number                    ?
_exptl_absorpt_coefficient_mu            ?
_exptl_absorpt_correction_type           ?
_computing_structure_solution            ?
_refine_ls_number_parameters             ?
_refine_ls_number_reflns                 ?
_refine_ls_R_factor_gt                   ?
_refine_ls_wR_factor_gt                  ?

# End of data set 379393


