##############################################################################
#                                                                            #
# Br-Cr-Cs         # CsCrBr3                                       # 1100139 #
#                                                                            #
##############################################################################
#                                                                            #
#                           Pearson's Crystal Data                           #
#      Crystal Structure Database for Inorganic Compounds (on DVD)           #
#                              Release 2017/18                               #
#                  Editors: Pierre Villars and Karin Cenzual                 #
#                                                                            #
#   Copyright (c) ASM International & Material Phases Data System (MPDS),    #
# Switzerland & National Institute for Materials Science (NIMS), Japan, 2017 #
#                   All rights reserved. Version 2017.08                     #
#                                                                            #
#   This copy of Pearson's Crystal Data is licensed to:                      #
#   University of Alberta, Chemistry Department, 1-5 Installations License         #
#                                                                            #
##############################################################################

data_1100139
_audit_creation_date                     2017-12-04
_audit_creation_method
;
Pearson's Crystal Data browser
;
#_database_code_PCD                      1100139

# Entry summary

_chemical_formula_structural             'Cs Cr Br~3~'
_chemical_formula_sum                    'Br3 Cr Cs'
_chemical_name_mineral                   ?
_chemical_compound_source                ?
_chemical_name_structure_type            BaNiO~3~,hP10,186
_chemical_formula_weight                 424.6

# Bibliographic data

_publ_section_title
;
The Effect of Exchange Coupling on the Spectra of Transition Metal Ions. The Crystal Structure and Optical Spectrum of CsCrBr~3~
;
_journal_coden_ASTM                      ACBCAR
_journal_name_full                       'Acta Crystallogr. B'
_journal_year                            1973
_journal_volume                          29
_journal_page_first                      1529
_journal_page_last                       1532
_journal_language                        English
loop_
 _publ_author_name
 _publ_author_address
'Li T.'
;
Illinois Urbana-Champaign University
Department of Chemistry
Urbana-Champaign
U.S.A. Illinois
;
'Stucky G.D.'
;
Illinois Urbana-Champaign University
Department of Chemistry
Urbana-Champaign
U.S.A. Illinois
;

# Standardized crystallographic data

_cell_length_a                           7.588
_cell_length_b                           7.588
_cell_length_c                           6.506
_cell_angle_alpha                        90
_cell_angle_beta                         90
_cell_angle_gamma                        120
_cell_volume                             324.4
_cell_formula_units_Z                    2
_space_group_IT_number                   186
_space_group_name_H-M_alt                'P 63 m c'
loop_
 _space_group_symop_id
 _space_group_symop_operation_xyz
 1 'x, y, z'
 2 '-x+y, -x, z'
 3 '-x+y, y, z'
 4 '-x, -x+y, 1/2+z'
 5 '-x, -y, 1/2+z'
 6 '-y, -x, z'
 7 '-y, x-y, z'
 8 'x, x-y, z'
 9 'x-y, -y, 1/2+z'
 10 'x-y, x, 1/2+z'
 11 'y, -x+y, 1/2+z'
 12 'y, x, 1/2+z'
loop_
 _atom_type_symbol
 Br
 Cs
 Cr
loop_
 _atom_site_label
 _atom_site_type_symbol
 _atom_site_symmetry_multiplicity
 _atom_site_Wyckoff_symbol
 _atom_site_fract_x
 _atom_site_fract_y
 _atom_site_fract_z
 _atom_site_occupancy
 Br Br 6 c 0.8386 0.1614 0.2239 1
 Cs Cs 2 b 0.333333 0.666667 0.2454 1
 Cr Cr 2 a 0 0 0.0 1


_exptl_crystal_colour                    brown
_exptl_crystal_density_meas              4.29(5)
_exptl_crystal_density_diffrn            4.35
_cell_measurement_temperature            ?
_cell_measurement_radiation              'X-rays, Mo Ka'
_cell_measurement_wavelength             0.71069
_cell_measurement_reflns_used            12
_diffrn_ambient_temperature              ?
_diffrn_measurement_device               'automatic diffractometer'
_diffrn_measurement_device_type          Picker
_diffrn_radiation_type                   'X-rays, Mo Ka'
_diffrn_radiation_wavelength             0.71069
_diffrn_reflns_number                    ?
_exptl_absorpt_coefficient_mu            ?
_exptl_absorpt_correction_type           yes
_computing_structure_solution            'Patterson synthesis'
_refine_ls_number_parameters             ?
_refine_ls_number_reflns                 164
_refine_ls_R_factor_gt                   0.074
_refine_ls_wR_factor_gt                  0.054

# End of data set 1100139


