##############################################################################
#                                                                            #
# Cr-Cs-O-P        # CsCr[P2O7]                                    #  551155 #
#                                                                            #
##############################################################################
#                                                                            #
#                           Pearson's Crystal Data                           #
#      Crystal Structure Database for Inorganic Compounds (on DVD)           #
#                              Release 2017/18                               #
#                  Editors: Pierre Villars and Karin Cenzual                 #
#                                                                            #
#   Copyright (c) ASM International & Material Phases Data System (MPDS),    #
# Switzerland & National Institute for Materials Science (NIMS), Japan, 2017 #
#                   All rights reserved. Version 2017.08                     #
#                                                                            #
#   This copy of Pearson's Crystal Data is licensed to:                      #
#   University of Alberta, Chemistry Department, 1-5 Installations License         #
#                                                                            #
##############################################################################

data_551155
_audit_creation_date                     2017-12-04
_audit_creation_method
;
Pearson's Crystal Data browser
;
#_database_code_PCD                      551155

# Entry summary

_chemical_formula_structural             'Cs Cr [P~2~ O~7~]'
_chemical_formula_sum                    'Cr Cs O7 P2'
_chemical_name_mineral                   ?
_chemical_compound_source                ?
_chemical_name_structure_type            KAl[P~2~O~7~],mP44,14
_chemical_formula_weight                 358.8

# Bibliographic data

_publ_section_title
'Crystalline structure of mixed chromium cesium pyrophosphate CsCrP~2~O~7~'   
_journal_coden_ASTM                      INOMAF
_journal_name_full                       'Inorg. Mater.'
_journal_year                            1982
_journal_volume                          18
_journal_page_first                      386
_journal_page_last                       389
_journal_language                        English
loop_
 _publ_author_name
 _publ_author_address
'Linde S.A.'
;
Russian Academy of Sciences
Kurnakov N.S. Institute of General and Inorganic Chemistry
Moscow
Russia
;
'Gorbunova Y.E.'
;
Russian Academy of Sciences
Kurnakov N.S. Institute of General and Inorganic Chemistry
Moscow
Russia
;

# Standardized crystallographic data

_cell_length_a                           7.714
_cell_length_b                           9.92
_cell_length_c                           8.359
_cell_angle_alpha                        90
_cell_angle_beta                         105.
_cell_angle_gamma                        90
_cell_volume                             617.86
_cell_formula_units_Z                    4
_space_group_IT_number                   14
_space_group_name_H-M_alt                'P 1 21/c 1'
loop_
 _space_group_symop_id
 _space_group_symop_operation_xyz
 1 'x, y, z'
 2 '-x, -y, -z'
 3 '-x, 1/2+y, 1/2-z'
 4 'x, 1/2-y, 1/2+z'
loop_
 _atom_type_symbol
 O
 P
 Cs
 Cr
loop_
 _atom_site_label
 _atom_site_type_symbol
 _atom_site_symmetry_multiplicity
 _atom_site_Wyckoff_symbol
 _atom_site_fract_x
 _atom_site_fract_y
 _atom_site_fract_z
 _atom_site_occupancy
 O(7) O 4 e 0.0197 -0.0042 0.2679 1
 O(5) O 4 e 0.0933 0.2612 0.2658 1
 P(2) P 4 e 0.12805 0.4051 0.33283 1
 O(6) O 4 e 0.1544 0.0845 0.0163 1
 Cs Cs 4 e 0.19936 0.70724 0.03812 1
 Cr Cr 4 e 0.24101 0.10153 0.25874 1
 O(4) O 4 e 0.3208 0.3975 0.005 1
 O(3) O 4 e 0.313 0.4544 0.294 1
 P(1) P 4 e 0.42324 0.37413 0.18237 1
 O(1) O 4 e 0.4338 0.2258 0.2359 1
 O(2) O 4 e 0.6105 0.4343 0.2315 1


_exptl_crystal_colour                    'green, dark'
_exptl_crystal_density_meas              ?
_exptl_crystal_density_diffrn            3.86
_cell_measurement_temperature            ?
_cell_measurement_radiation              'X-rays, Mo Ka'
_cell_measurement_reflns_used            ?
_diffrn_ambient_temperature              ?
_diffrn_measurement_device               'automatic diffractometer'
_diffrn_measurement_device_type          'Syntex P21'
_diffrn_radiation_type                   'X-rays, Mo Ka'
_diffrn_reflns_number                    ?
_exptl_absorpt_coefficient_mu            ?
_exptl_absorpt_correction_type           ?
_computing_structure_solution            'Patterson and Fourier synthesis'
_refine_ls_number_parameters             ?
_refine_ls_number_reflns                 ?
_refine_ls_R_factor_gt                   0.025
_refine_ls_wR_factor_gt                  ?

# End of data set 551155


