##############################################################################
#                                                                            #
# Cs-Ga-S          # CsGaS2                                        #  302226 #
#                                                                            #
##############################################################################
#                                                                            #
#                           Pearson's Crystal Data                           #
#      Crystal Structure Database for Inorganic Compounds (on DVD)           #
#                              Release 2017/18                               #
#                  Editors: Pierre Villars and Karin Cenzual                 #
#                                                                            #
#   Copyright (c) ASM International & Material Phases Data System (MPDS),    #
# Switzerland & National Institute for Materials Science (NIMS), Japan, 2017 #
#                   All rights reserved. Version 2017.08                     #
#                                                                            #
#   This copy of Pearson's Crystal Data is licensed to:                      #
#   University of Alberta, Chemistry Department, 1-5 Installations License         #
#                                                                            #
##############################################################################

data_302226
_audit_creation_date                     2017-12-01
_audit_creation_method
;
Pearson's Crystal Data browser
;
#_database_code_PCD                      302226

# Entry summary

_chemical_formula_structural             'Cs Ga S~2~'
_chemical_formula_sum                    'Cs Ga S2'
_chemical_name_mineral                   ?
_chemical_compound_source                ?
_chemical_name_structure_type            KFeS~2~,mS16,15
_chemical_formula_weight                 266.7

# Bibliographic data

_publ_section_title
;
Low-spin-Anordnungen in Tetraederstrukturen von Eisensulfiden: Untersuchungen zum System CsGa~1-x~Fe~x~S~2~
;
_journal_coden_ASTM                      JCOMAH
_journal_name_full                       'J. Less-Common Met.'
_journal_year                            1980
_journal_volume                          70
_journal_page_first                      253
_journal_page_last                       262
_journal_language                        German
loop_
 _publ_author_name
 _publ_author_address
'Bronger W.'
;
Aachen RWTH University
Institut f\"ur Anorganische Chemie
Aachen
Germany
;
'M\"uller P.'
;
Aachen RWTH University
Institut f\"ur Anorganische Chemie
Aachen
Germany
;

# Standardized crystallographic data

_cell_length_a                           7.428
_cell_length_b                           12.217
_cell_length_c                           5.905
_cell_angle_alpha                        90
_cell_angle_beta                         113.
_cell_angle_gamma                        90
_cell_volume                             493.3
_cell_formula_units_Z                    4
_space_group_IT_number                   15
_space_group_name_H-M_alt                'C 1 2/c 1'
loop_
 _space_group_symop_id
 _space_group_symop_operation_xyz
 1 'x, y, z'
 2 '-x, -y, -z'
 3 '-x, y, 1/2-z'
 4 'x, -y, 1/2+z'
 5 '1/2+x, 1/2+y, z'
 6 '1/2-x, 1/2-y, -z'
 7 '1/2-x, 1/2+y, 1/2-z'
 8 '1/2+x, 1/2-y, 1/2+z'
loop_
 _atom_type_symbol
 S
 Cs
 Ga
loop_
 _atom_site_label
 _atom_site_type_symbol
 _atom_site_symmetry_multiplicity
 _atom_site_Wyckoff_symbol
 _atom_site_fract_x
 _atom_site_fract_y
 _atom_site_fract_z
 _atom_site_occupancy
 S S 8 f 0.18 0.4 0.092 1
 Cs Cs 4 e 0 0.1453 0.25 1
 Ga Ga 4 e 0 0.5033 0.25 1


_exptl_crystal_colour                    colorless
_exptl_crystal_density_meas              ?
_exptl_crystal_density_diffrn            3.59
_cell_measurement_temperature            ?
_cell_measurement_radiation              'X-rays, Cu Ka'
_cell_measurement_reflns_used            ?
_diffrn_ambient_temperature              ?
_diffrn_measurement_device               'automatic diffractometer'
_diffrn_measurement_device_type          ?
_diffrn_radiation_type                   'X-rays, Mo Ka'
_diffrn_reflns_number                    ?
_diffrn_reflns_theta_min                 1
_diffrn_reflns_theta_max                 30
_exptl_absorpt_coefficient_mu            ?
_exptl_absorpt_correction_type           ?
_computing_structure_solution            'starting values from the literature'
_refine_ls_number_parameters             ?
_refine_ls_number_reflns                 470
_refine_ls_R_factor_gt                   0.05
_refine_ls_wR_factor_gt                  ?

# End of data set 302226


