##############################################################################
#                                                                            #
# Cs-Ho-O-W        # CsHoW2O8 ht                                   #  545478 #
#                                                                            #
##############################################################################
#                                                                            #
#                           Pearson's Crystal Data                           #
#      Crystal Structure Database for Inorganic Compounds (on DVD)           #
#                              Release 2017/18                               #
#                  Editors: Pierre Villars and Karin Cenzual                 #
#                                                                            #
#   Copyright (c) ASM International & Material Phases Data System (MPDS),    #
# Switzerland & National Institute for Materials Science (NIMS), Japan, 2017 #
#                   All rights reserved. Version 2017.08                     #
#                                                                            #
#   This copy of Pearson's Crystal Data is licensed to:                      #
#   University of Alberta, Chemistry Department, 1-5 Installations License         #
#                                                                            #
##############################################################################

data_545478
_audit_creation_date                     2017-12-04
_audit_creation_method
;
Pearson's Crystal Data browser
;
#_database_code_PCD                      545478

# Entry summary

_chemical_formula_structural             'Cs Ho W~2~ O~8~'
_chemical_formula_sum                    'Cs Ho O8 W2'
_chemical_name_mineral                   ?
_chemical_compound_source                ?
_chemical_name_structure_type            CsLuW~2~O~8~,mP24,13
_chemical_formula_weight                 793.5
_chemical_melting_point                  1413

# Bibliographic data

_publ_section_title
'Double Tungstates of Caesium and the Rare Earth Elements'                    
_journal_coden_ASTM                      RJICAQ
_journal_name_full                       'Russ. J. Inorg. Chem.'
_journal_year                            1974
_journal_volume                          19
_journal_page_first                      188
_journal_page_last                       190
_journal_language                        English
loop_
 _publ_author_name
 _publ_author_address
'Trunov V.K.'
;
Moscow M.V. Lomonosov State University
Moscow
Russia
;
'Rybakov V.K.'
;
Moscow M.V. Lomonosov State University
Moscow
Russia
;

# Standardized crystallographic data

_cell_length_a                           9.315
_cell_length_b                           5.197
_cell_length_c                           7.336
_cell_angle_alpha                        90
_cell_angle_beta                         95.83
_cell_angle_gamma                        90
_cell_volume                             353.3
_cell_formula_units_Z                    2
_space_group_IT_number                   13
_space_group_name_H-M_alt                'P 1 2/c 1'
loop_
 _space_group_symop_id
 _space_group_symop_operation_xyz
 1 'x, y, z'
 2 '-x, -y, -z'
 3 '-x, y, 1/2-z'
 4 'x, -y, 1/2+z'

# Atomic positions taken from type-defining entry

loop_
 _atom_type_symbol
 O
 W
 Cs
 Ho
loop_
 _atom_site_label
 _atom_site_type_symbol
 _atom_site_symmetry_multiplicity
 _atom_site_Wyckoff_symbol
 _atom_site_fract_x
 _atom_site_fract_y
 _atom_site_fract_z
 _atom_site_occupancy
 O1 O 4 g 0.0459 0.2329 0.0313 1
 O2 O 4 g 0.1652 0.1349 0.7325 1
 W1 W 4 g 0.1869 0.0205 0.4922 1
 O3 O 4 g 0.2198 0.334 0.3939 1
 O4 O 4 g 0.3572 0.1028 0.058 1
 Cs1 Cs 2 f 0.5 0.5919 0.25 1
 Ho1 Ho 2 e 0 0.5282 0.25 1


_exptl_crystal_colour                    ?
_exptl_crystal_density_meas              ?
_exptl_crystal_density_diffrn            7.46
_cell_measurement_temperature            ?
_cell_measurement_radiation              'X-rays, Cu Ka'
_cell_measurement_reflns_used            ?
_diffrn_ambient_temperature              ?
_diffrn_measurement_device               film
_diffrn_measurement_device_type          ?
_diffrn_radiation_type                   ?
_diffrn_reflns_number                    ?
_exptl_absorpt_coefficient_mu            ?
_exptl_absorpt_correction_type           ?
_computing_structure_solution            ?
_refine_ls_number_parameters             ?
_refine_ls_number_reflns                 ?
_refine_ls_R_factor_gt                   ?
_refine_ls_wR_factor_gt                  ?

# End of data set 545478


