##############################################################################
#                                                                            #
# Cr-Cs-Li-O       # CsLi[CrO4] rt                                 # 1001273 #
#                                                                            #
##############################################################################
#                                                                            #
#                           Pearson's Crystal Data                           #
#      Crystal Structure Database for Inorganic Compounds (on DVD)           #
#                              Release 2017/18                               #
#                  Editors: Pierre Villars and Karin Cenzual                 #
#                                                                            #
#   Copyright (c) ASM International & Material Phases Data System (MPDS),    #
# Switzerland & National Institute for Materials Science (NIMS), Japan, 2017 #
#                   All rights reserved. Version 2017.08                     #
#                                                                            #
#   This copy of Pearson's Crystal Data is licensed to:                      #
#   University of Alberta, Chemistry Department, 1-5 Installations License         #
#                                                                            #
##############################################################################

data_1001273
_audit_creation_date                     2017-12-04
_audit_creation_method
;
Pearson's Crystal Data browser
;
#_database_code_PCD                      1001273

# Entry summary

_chemical_formula_structural             'Cs Li [Cr O~4~]'
_chemical_formula_sum                    'Cr Cs Li O4'
_chemical_name_mineral                   ?
_chemical_compound_source                ?
_chemical_name_structure_type            CsLiBeF~4~,mP28,14
_chemical_formula_weight                 255.8

# Bibliographic data

_publ_section_title
'Synthesis and crystal-structural and thermal investigations of CsLiCrO~4~'   
_journal_coden_ASTM                      SPHCA6
_journal_name_full                       'Sov. Phys. Crystallogr.'
_journal_year                            1987
_journal_volume                          32
_journal_page_first                      677
_journal_page_last                       681
_journal_language                        English
loop_
 _publ_author_name
 _publ_author_address
'Klevtsov P.V.'
;
Russian Academy of Sciences
Nikolaev A.V. Institute of Inorganic Chemistry
Novosibirsk
Russia
;
'Perepelitsa A.P.'
;
Kiev Taras Shevchenko National University
Kiev Technological Institute for the Food Industry
Kiev
Ukraine
;
'Ishchenko V.N.'
;
Kiev Taras Shevchenko National University
Kiev Technological Institute for the Food Industry
Kiev
Ukraine
;
'Klevtsova R.F.'
;
Russian Academy of Sciences
Nikolaev A.V. Institute of Inorganic Chemistry
Novosibirsk
Russia
;
'Glinskaya L.A.'
;
Russian Academy of Sciences
Nikolaev A.V. Institute of Inorganic Chemistry
Novosibirsk
Russia
;
'Kruglik A.I.'
;
Russian Academy of Sciences
Institute of Physics
Novosibirsk
Russia
;
'Aleksandrov K.S.'
;
Russian Academy of Sciences
Kirenskii L.V. Institute of Physics
Krasnoyarsk
Russia
;
'Simonov M.A.'
;
Moscow M.V. Lomonosov State University
Moscow
Russia
;

# Standardized crystallographic data

_cell_length_a                           5.636
_cell_length_b                           8.946
_cell_length_c                           11.2948
_cell_angle_alpha                        90
_cell_angle_beta                         120.382
_cell_angle_gamma                        90
_cell_volume                             491.27
_cell_formula_units_Z                    4
_space_group_IT_number                   14
_space_group_name_H-M_alt                'P 1 21/c 1'
loop_
 _space_group_symop_id
 _space_group_symop_operation_xyz
 1 'x, y, z'
 2 '-x, -y, -z'
 3 '-x, 1/2+y, 1/2-z'
 4 'x, 1/2-y, 1/2+z'
loop_
 _atom_type_symbol
 Cs
 O
 Cr
 Li
loop_
 _atom_site_label
 _atom_site_type_symbol
 _atom_site_symmetry_multiplicity
 _atom_site_Wyckoff_symbol
 _atom_site_fract_x
 _atom_site_fract_y
 _atom_site_fract_z
 _atom_site_occupancy
 Cs Cs 4 e 0.0143 -0.0022 0.2794 1
 O4 O 4 e 0.0308 0.2765 0.0332 1
 O1 O 4 e 0.3262 0.0279 0.0741 1
 Cr Cr 4 e 0.3346 0.2094 0.0749 1
 O2 O 4 e 0.4151 0.2342 0.4609 1
 O3 O 4 e 0.5689 0.2697 0.2265 1
 Li Li 4 e 0.6754 0.3152 0.4118 1


_exptl_crystal_colour                    ?
_exptl_crystal_density_meas              ?
_exptl_crystal_density_diffrn            3.46
_cell_measurement_temperature            293
_cell_measurement_radiation              'X-rays, Mo Ka'
_cell_measurement_reflns_used            ?
_diffrn_ambient_temperature              293
_diffrn_measurement_device               'automatic diffractometer'
_diffrn_measurement_device_type          'Syntex P21'
_diffrn_radiation_type                   'X-rays, Mo Ka'
_diffrn_reflns_number                    ?
_exptl_absorpt_coefficient_mu            ?
_exptl_absorpt_correction_type           ?
_computing_structure_solution            'Patterson and Fourier synthesis'
_refine_ls_number_parameters             ?
_refine_ls_number_reflns                 1545
_refine_ls_R_factor_gt                   0.043
_refine_ls_wR_factor_gt                  ?

# Published diffraction lines

loop_
 _refln_index_h
 _refln_index_k
 _refln_index_l
 _refln_d_spacing
 _refln_intensity_meas
 -1 1 0 48.5 35
 0 0 2 44.7 10
 -1 1 1 42.8 25
 -2 1 1 34.14 15
 2 1 1 33.97 15
 -1 1 2 32.93 100
 3 0 1 30.53 15
 1 0 3 28.48 4
 -3 1 0 28.17 50
 -3 1 1 26.96 3
 3 1 1 26.76 4
 3 0 2 26.31 1
 1 2 1 25.82 3
 -1 1 3 25.45 3
 2 2 0 24.47 7
 4 0 0 24.37 20
 0 2 2 23.77 20
 -2 2 1 23.6 3
 2 2 1 23.46 4
 -2 1 3 23.2 1
 0 0 4 22.36 40
 3 0 3 21.99 5
 -4 1 1 21.76 3
 -2 2 2 21.47 6
 4 0 2 21.36 15
 -3 2 1 20.78 5
 3 2 1 20.59 3
 0 2 3 20.4 2
 -1 1 4 20.33 15
 -1 2 3 20.07 3
 4 1 2 19.92 3
 3 2 2 19.15 2
 5 0 1 19.05 15
 -1 3 0 18.45 2
 1 3 0 18.39 3
 -4 2 1 18.1 2
 -4 1 3 17.93 5
 4 1 3 17.87 5
 -3 1 4 17.54 8
 0 2 4 17.51 12
 -2 3 1 17.24 2
 -4 2 2 17.06 7
 1 3 2 17.04 12
 5 1 2 16.98 12
 4 0 4 16.47 10
 -3 3 0 16.31 5
 3 3 0 16.2 8
 2 1 5 16.08 3
 -5 2 1 15.83 3
 5 2 1 15.72 4
 -6 1 1 15.41 2
 6 1 1 15.35 5
 1 2 5 14.925 4
 -4 3 1 14.705 2
 4 3 1 14.611 1
 -1 1 6 14.269 7
 5 1 4 14.197 3
 -6 2 0 14.116 2
 0 4 0 14.086 4
 6 2 0 14.03 4

# End of data set 1001273


