##############################################################################
#                                                                            #
# Cr-Cs-Li-O       # CsLi[CrO4] rt                                 # 1001274 #
#                                                                            #
##############################################################################
#                                                                            #
#                           Pearson's Crystal Data                           #
#      Crystal Structure Database for Inorganic Compounds (on DVD)           #
#                              Release 2017/18                               #
#                  Editors: Pierre Villars and Karin Cenzual                 #
#                                                                            #
#   Copyright (c) ASM International & Material Phases Data System (MPDS),    #
# Switzerland & National Institute for Materials Science (NIMS), Japan, 2017 #
#                   All rights reserved. Version 2017.08                     #
#                                                                            #
#   This copy of Pearson's Crystal Data is licensed to:                      #
#   University of Alberta, Chemistry Department, 1-5 Installations License         #
#                                                                            #
##############################################################################

data_1001274
_audit_creation_date                     2017-12-04
_audit_creation_method
;
Pearson's Crystal Data browser
;
#_database_code_PCD                      1001274

# Entry summary

_chemical_formula_structural             'Cs Li [Cr O~4~]'
_chemical_formula_sum                    'Cr Cs Li O4'
_chemical_name_mineral                   ?
_chemical_compound_source                ?
_chemical_name_structure_type            CsLiBeF~4~,mP28,14
_chemical_formula_weight                 255.8

# Bibliographic data

_publ_section_title
'Synthesis and crystal-structural and thermal investigations of CsLiCrO~4~'   
_journal_coden_ASTM                      SPHCA6
_journal_name_full                       'Sov. Phys. Crystallogr.'
_journal_year                            1987
_journal_volume                          32
_journal_page_first                      677
_journal_page_last                       681
_journal_language                        English
loop_
 _publ_author_name
 _publ_author_address
'Klevtsov P.V.'
;
Russian Academy of Sciences
Nikolaev A.V. Institute of Inorganic Chemistry
Novosibirsk
Russia
;
'Perepelitsa A.P.'
;
Kiev Taras Shevchenko National University
Kiev Technological Institute for the Food Industry
Kiev
Ukraine
;
'Ishchenko V.N.'
;
Kiev Taras Shevchenko National University
Kiev Technological Institute for the Food Industry
Kiev
Ukraine
;
'Klevtsova R.F.'
;
Russian Academy of Sciences
Nikolaev A.V. Institute of Inorganic Chemistry
Novosibirsk
Russia
;
'Glinskaya L.A.'
;
Russian Academy of Sciences
Nikolaev A.V. Institute of Inorganic Chemistry
Novosibirsk
Russia
;
'Kruglik A.I.'
;
Russian Academy of Sciences
Institute of Physics
Novosibirsk
Russia
;
'Aleksandrov K.S.'
;
Russian Academy of Sciences
Kirenskii L.V. Institute of Physics
Krasnoyarsk
Russia
;
'Simonov M.A.'
;
Moscow M.V. Lomonosov State University
Moscow
Russia
;

# Standardized crystallographic data

_cell_length_a                           5.579
_cell_length_b                           8.97
_cell_length_c                           11.1471
_cell_angle_alpha                        90
_cell_angle_beta                         119.832
_cell_angle_gamma                        90
_cell_volume                             483.9
_cell_formula_units_Z                    4
_space_group_IT_number                   14
_space_group_name_H-M_alt                'P 1 21/c 1'
loop_
 _space_group_symop_id
 _space_group_symop_operation_xyz
 1 'x, y, z'
 2 '-x, -y, -z'
 3 '-x, 1/2+y, 1/2-z'
 4 'x, 1/2-y, 1/2+z'

# Atomic positions taken from type-defining entry

loop_
 _atom_type_symbol
 Cs
 O
 Cr
 Li
loop_
 _atom_site_label
 _atom_site_type_symbol
 _atom_site_symmetry_multiplicity
 _atom_site_Wyckoff_symbol
 _atom_site_fract_x
 _atom_site_fract_y
 _atom_site_fract_z
 _atom_site_occupancy
 Cs1 Cs 4 e 0.0232 0.002 0.2763 1
 O1 O 4 e 0.0368 0.2644 0.0399 1
 O2 O 4 e 0.3312 0.0263 0.083 1
 Cr1 Cr 4 e 0.3377 0.2019 0.083 1
 O3 O 4 e 0.4227 0.2409 0.4722 1
 O4 O 4 e 0.5605 0.2586 0.2333 1
 Li1 Li 4 e 0.672 0.3181 0.4173 1


_exptl_crystal_colour                    ?
_exptl_crystal_density_meas              ?
_exptl_crystal_density_diffrn            3.51
_cell_measurement_temperature            103
_cell_measurement_radiation              'X-rays, Cu Ka'
_cell_measurement_reflns_used            ?
_diffrn_ambient_temperature              ?
_diffrn_measurement_device               'automatic diffractometer'
_diffrn_measurement_device_type          ?
_diffrn_radiation_type                   ?
_diffrn_reflns_number                    ?
_exptl_absorpt_coefficient_mu            ?
_exptl_absorpt_correction_type           ?
_computing_structure_solution            ?
_refine_ls_number_parameters             ?
_refine_ls_number_reflns                 ?
_refine_ls_R_factor_gt                   ?
_refine_ls_wR_factor_gt                  ?

# End of data set 1001274


