##############################################################################
#                                                                            #
# Cs-Nb-O-V        # CsNb[VO4]2                                    # 1530444 #
#                                                                            #
##############################################################################
#                                                                            #
#                           Pearson's Crystal Data                           #
#      Crystal Structure Database for Inorganic Compounds (on DVD)           #
#                              Release 2017/18                               #
#                  Editors: Pierre Villars and Karin Cenzual                 #
#                                                                            #
#   Copyright (c) ASM International & Material Phases Data System (MPDS),    #
# Switzerland & National Institute for Materials Science (NIMS), Japan, 2017 #
#                   All rights reserved. Version 2017.08                     #
#                                                                            #
#   This copy of Pearson's Crystal Data is licensed to:                      #
#   University of Alberta, Chemistry Department, 1-5 Installations License         #
#                                                                            #
##############################################################################

data_1530444
_audit_creation_date                     2017-12-05
_audit_creation_method
;
Pearson's Crystal Data browser
;
#_database_code_PCD                      1530444

# Entry summary

_chemical_formula_structural             'Cs Nb [V O~4~]~2~'
_chemical_formula_sum                    'Cs Nb O8 V2'
_chemical_name_mineral                   ?
_chemical_compound_source                ?
_chemical_name_structure_type            CsNb[VO~4~]~2~,mP48,11
_chemical_formula_weight                 455.7

# Bibliographic data

_publ_section_title
;
Synthesis and structural characterization of AMV~2~O~8~ (A= K, Rb, Tl, Cs; M= Nb, Ta) vanadates: A structural comparison of A^+^M^5+^V~2~O~8~ vanadates and A^+^M^5+^P~2~O~8~ phosphates
;
_journal_coden_ASTM                      DTARAF
_journal_name_full                       'Dalton Trans.'
_journal_year                            2015
_journal_volume                          44
_journal_page_first                      17399
_journal_page_last                       17408
_journal_language                        English
loop_
 _publ_author_name
 _publ_author_address
'Paidi A.K.'
;
Indian Institute of Technology (IIT)
Department of Chemistry
Chennai / Tamil Nadu
India
;
'Devi R.N.'
;
Indian Institute of Technology (IIT)
Department of Chemistry
Chennai / Tamil Nadu
India
;
'Vidyasagar K.'
;
Indian Institute of Technology (IIT)
Department of Chemistry
Chennai / Tamil Nadu
India
;

# Standardized crystallographic data

_cell_length_a                           8.9929
_cell_length_b                           5.6392
_cell_length_c                           16.6215
_cell_angle_alpha                        90
_cell_angle_beta                         105.531
_cell_angle_gamma                        90
_cell_volume                             812.14
_cell_formula_units_Z                    4
_space_group_IT_number                   11
_space_group_name_H-M_alt                'P 1 21/m 1'
loop_
 _space_group_symop_id
 _space_group_symop_operation_xyz
 1 'x, y, z'
 2 '-x, -y, -z'
 3 '-x, 1/2+y, -z'
 4 'x, 1/2-y, z'
loop_
 _atom_type_symbol
 O
 Cs
 V
 Nb
loop_
 _atom_site_label
 _atom_site_type_symbol
 _atom_site_symmetry_multiplicity
 _atom_site_Wyckoff_symbol
 _atom_site_fract_x
 _atom_site_fract_y
 _atom_site_fract_z
 _atom_site_occupancy
 O5 O 4 f 0.255 0.0 0.8093 1
 O3 O 4 f 0.291 0.509 0.2867 1
 O1 O 4 f 0.413 0.018 0.59 1
 O7 O 4 f 0.445 0.481 0.112 1
 O11 O 2 e 0.052 0.25 0.213 1
 Cs2 Cs 2 e 0.0798 0.25 0.6216 1
 O12 O 2 e 0.182 0.25 0.396 1
 O9 O 2 e 0.16 0.25 0.047 1
 V4 V 2 e 0.209 0.25 0.3038 1
 V2 V 2 e 0.341 0.25 0.0511 1
 O6 O 2 e 0.353 0.25 0.951 1
 Nb2 Nb 2 e 0.4228 0.25 0.8459 1
 O4 O 2 e 0.469 0.25 0.74 1
 Nb1 Nb 2 e 0.5636 0.25 0.6494 1
 V1 V 2 e 0.663 0.25 0.4514 1
 O2 O 2 e 0.662 0.25 0.553 1
 O10 O 2 e 0.829 0.25 0.0763 1
 V3 V 2 e 0.85 0.25 0.1757 1
 O8 O 2 e 0.821 0.25 0.423 1
 Cs1 Cs 2 e 0.9013 0.25 0.8894 1


_exptl_crystal_colour                    ?
_exptl_crystal_density_meas              ?
_exptl_crystal_density_diffrn            3.73
_cell_measurement_temperature            ?
_cell_measurement_radiation              'X-rays, Cu Ka'
_cell_measurement_wavelength             1.5406
_pd_proc_wavelength                      1.5406
_cell_measurement_reflns_used            ?
_diffrn_ambient_temperature              ?
_diffrn_measurement_device               'automatic diffractometer'
_diffrn_measurement_device_type          'Bruker AXS D8 ADVANCE'
_diffrn_radiation_type                   'X-rays, Cu Ka'
_diffrn_radiation_wavelength             1.5406
_diffrn_reflns_number                    ?
_exptl_absorpt_coefficient_mu            ?
_exptl_absorpt_correction_type           ?
_computing_structure_solution            'starting values from the literature'
_refine_ls_number_parameters             ?
_refine_ls_number_reflns                 ?
_refine_ls_R_factor_gt                   ?
_refine_ls_wR_factor_gt                  ?
_pd_proc_ls_proof_R_factor               0.0922
_pd_proc_ls_proof_wR_factor              0.1196
_refine_ls_R_I_factor                    ?

# End of data set 1530444


