##############################################################################
#                                                                            #
# C-Cs-H-Nb-O      # CsNb[C2O4]2O[H2O]4                            # 1100148 #
#                                                                            #
##############################################################################
#                                                                            #
#                           Pearson's Crystal Data                           #
#      Crystal Structure Database for Inorganic Compounds (on DVD)           #
#                              Release 2017/18                               #
#                  Editors: Pierre Villars and Karin Cenzual                 #
#                                                                            #
#   Copyright (c) ASM International & Material Phases Data System (MPDS),    #
# Switzerland & National Institute for Materials Science (NIMS), Japan, 2017 #
#                   All rights reserved. Version 2017.08                     #
#                                                                            #
#   This copy of Pearson's Crystal Data is licensed to:                      #
#   University of Alberta, Chemistry Department, 1-5 Installations License         #
#                                                                            #
##############################################################################

data_1100148
_audit_creation_date                     2017-12-04
_audit_creation_method
;
Pearson's Crystal Data browser
;
#_database_code_PCD                      1100148

# Entry summary

_chemical_formula_structural             'Cs Nb [C~2~ O~4~]~2~ O [H~2~ O]~4~'
_chemical_formula_sum                    'C4 Cs H8 Nb O13'
_chemical_name_mineral                   ?
_chemical_compound_source                ?
_chemical_name_structure_type
CsNb[C~2~O~4~]~2~O[H~2~O]~4~,mP38,11                                          
_chemical_formula_weight                 489.9

# Bibliographic data

_publ_section_title
;
The crystal structure of caesium oxobisoxalatobisaquoniobate(V) dihydrate, Cs[NbO(C~2~O~4~)~2~(H~2~O)~2~].2H~2~O
;
_journal_coden_ASTM                      ACBCAR
_journal_name_full                       'Acta Crystallogr. B'
_journal_year                            1973
_journal_volume                          29
_journal_page_first                      864
_journal_page_last                       869
_journal_language                        English
loop_
 _publ_author_name
 _publ_author_address
'Kojic Prodic B.'
;
Zagreb Rudjer Boskovic Institute
Zagreb
Croatia
;
'Liminga R.'
;
Zagreb Rudjer Boskovic Institute
Zagreb
Croatia
;
'Scavnicar S.'
;
Zagreb Rudjer Boskovic Institute
Zagreb
Croatia
;

# Standardized crystallographic data

_cell_length_a                           6.464
_cell_length_b                           11.8697
_cell_length_c                           7.9518
_cell_angle_alpha                        90
_cell_angle_beta                         98.911
_cell_angle_gamma                        90
_cell_volume                             602.7
_cell_formula_units_Z                    2
_space_group_IT_number                   11
_space_group_name_H-M_alt                'P 1 21/m 1'
loop_
 _space_group_symop_id
 _space_group_symop_operation_xyz
 1 'x, y, z'
 2 '-x, -y, -z'
 3 '-x, 1/2+y, -z'
 4 'x, 1/2-y, z'
loop_
 _atom_type_symbol
 O
 C
 OH2
 Nb
 Cs
loop_
 _atom_site_label
 _atom_site_type_symbol
 _atom_site_symmetry_multiplicity
 _atom_site_Wyckoff_symbol
 _atom_site_fract_x
 _atom_site_fract_y
 _atom_site_fract_z
 _atom_site_occupancy
 O6 O 4 f 0.12129 0.08241 0.36556 1
 O5 O 4 f 0.1436 0.59913 0.30162 1
 C2 C 4 f 0.15396 0.00007 0.26686 1
 C1 C 4 f 0.21582 0.03863 0.09743 1
 O4 O 4 f 0.21595 0.14737 0.08552 1
 O8 OH2 4 f 0.61527 0.03776 0.3292 1
 O7 O 4 f 0.74421 0.02719 0.00731 1
 O1 OH2 2 e 0.0569 0.25 0.53335 1
 Nb Nb 2 e 0.11103 0.25 0.27083 1
 O2 OH2 2 e 0.46138 0.25 0.39562 1
 Cs Cs 2 e 0.52091 0.25 0.84356 1
 O3 O 2 e 0.85371 0.25 0.18806 1


_exptl_crystal_colour                    colorless
_exptl_crystal_density_meas              2.66
_exptl_crystal_density_diffrn            2.70
_cell_measurement_temperature            ?
_cell_measurement_radiation              'X-rays, Cr Ka1'
_cell_measurement_wavelength             2.28962
_pd_proc_wavelength                      2.28962
_cell_measurement_reflns_used            27
_diffrn_ambient_temperature              ?
_diffrn_measurement_device               'automatic diffractometer'
_diffrn_measurement_device_type          'STOE-Philips 4-circle'
_diffrn_radiation_type                   'X-rays, Mo Ka'
_diffrn_reflns_number                    ?
_exptl_absorpt_coefficient_mu            4.070
_exptl_absorpt_correction_type           yes
_computing_structure_solution            'Patterson synthesis'
_refine_ls_number_parameters             ?
_refine_ls_number_reflns                 2411
_refine_ls_R_factor_gt                   0.046
_refine_ls_wR_factor_gt                  0.080

# End of data set 1100148


