##############################################################################
#                                                                            #
# Cs-H-Nd-O-Se     # CsNd[SeO4]2[H2O]4                             #  544702 #
#                                                                            #
##############################################################################
#                                                                            #
#                           Pearson's Crystal Data                           #
#      Crystal Structure Database for Inorganic Compounds (on DVD)           #
#                              Release 2017/18                               #
#                  Editors: Pierre Villars and Karin Cenzual                 #
#                                                                            #
#   Copyright (c) ASM International & Material Phases Data System (MPDS),    #
# Switzerland & National Institute for Materials Science (NIMS), Japan, 2017 #
#                   All rights reserved. Version 2017.08                     #
#                                                                            #
#   This copy of Pearson's Crystal Data is licensed to:                      #
#   University of Alberta, Chemistry Department, 1-5 Installations License         #
#                                                                            #
##############################################################################

data_544702
_audit_creation_date                     2017-12-04
_audit_creation_method
;
Pearson's Crystal Data browser
;
#_database_code_PCD                      544702

# Entry summary

_chemical_formula_structural             'Cs Nd [Se O~4~]~2~ [H~2~ O]~4~'
_chemical_formula_sum                    'Cs H8 Nd O12 Se2'
_chemical_name_mineral                   ?
_chemical_compound_source                ?
_chemical_name_structure_type
[NH~4~]Sm[SO~4~]~2~[H~2~O]~4~,mP64,14                                         
_chemical_formula_weight                 635.1

# Bibliographic data

_publ_section_title
'The preparation and crystal structure of the compounds CsLn(SeO~4~)~2~.4H~2~O'
_journal_coden_ASTM                      RJICAQ
_journal_name_full                       'Russ. J. Inorg. Chem.'
_journal_year                            1987
_journal_volume                          32
_journal_page_first                      501
_journal_page_last                       503
_journal_language                        English
loop_
 _publ_author_name
 _publ_author_address
'Obanesyan S.M.'
;
Scientific Research Institute of Chemical Reagents and Ultrapure Chemicals
;
'Iskhakova L.D.'
;
Russian Academy of Sciences
All-Union Research Institute of Reagents and Especially Pure Substances
Moscow
Russia
;
'Trunov V.K.'
;
Russian Academy of Sciences
All-Union Research Institute of Reagents and Especially Pure Substances
Moscow
Russia
;

# Standardized crystallographic data

_cell_length_a                           6.85
_cell_length_b                           19.479
_cell_length_c                           8.974
_cell_angle_alpha                        90
_cell_angle_beta                         94.76
_cell_angle_gamma                        90
_cell_volume                             1193.28
_cell_formula_units_Z                    4
_space_group_IT_number                   14
_space_group_name_H-M_alt                'P 1 21/c 1'
loop_
 _space_group_symop_id
 _space_group_symop_operation_xyz
 1 'x, y, z'
 2 '-x, -y, -z'
 3 '-x, 1/2+y, 1/2-z'
 4 'x, 1/2-y, 1/2+z'
loop_
 _atom_type_symbol
 O
 OH2
 Cs
 Se
 Nd
loop_
 _atom_site_label
 _atom_site_type_symbol
 _atom_site_symmetry_multiplicity
 _atom_site_Wyckoff_symbol
 _atom_site_fract_x
 _atom_site_fract_y
 _atom_site_fract_z
 _atom_site_occupancy
 O11 O 4 e -0.006 0.1184 0.292 1
 O13 O 4 e 0.127 -0.0095 0.259 1
 Ow4 OH2 4 e 0.143 0.4002 0.349 1
 Cs Cs 4 e 0.1329 0.27954 0.1191 1
 O21 O 4 e 0.186 0.7384 0.139 1
 Se1 Se 4 e 0.1866 0.06987 0.2772 1
 O12 O 4 e 0.311 0.0989 0.144 1
 Ow3 OH2 4 e 0.322 0.4991 0.175 1
 O14 O 4 e 0.343 0.0796 0.426 1
 O23 O 4 e 0.443 0.2201 0.369 1
 O24 O 4 e 0.57 0.3483 0.306 1
 Se2 Se 4 e 0.6164 0.27906 0.403 1
 O22 O 4 e 0.629 0.2028 0.083 1
 Nd Nd 4 e 0.64318 0.12254 0.28065 1
 Ow2 OH2 4 e 0.689 0.0581 0.036 1
 Ow1 OH2 4 e 0.738 0.3871 0.056 1


_exptl_crystal_colour                    ?
_exptl_crystal_density_meas              ?
_exptl_crystal_density_diffrn            3.54
_cell_measurement_temperature            ?
_cell_measurement_radiation              'X-rays, Cu Ka'
_cell_measurement_reflns_used            ?
_diffrn_ambient_temperature              ?
_diffrn_measurement_device               'automatic diffractometer'
_diffrn_measurement_device_type          'Enraf-Nonius CAD4'
_diffrn_radiation_type                   'X-rays, Mo Ka'
_diffrn_reflns_number                    ?
_exptl_absorpt_coefficient_mu            ?
_exptl_absorpt_correction_type           spherical
_computing_structure_solution            'Patterson and Fourier synthesis'
_refine_ls_number_parameters             ?
_refine_ls_number_reflns                 1682
_refine_ls_R_factor_gt                   0.046
_refine_ls_wR_factor_gt                  0.066

# End of data set 544702


