##############################################################################
#                                                                            #
# Cs-O-Pr-W        # CsPrW2O8 hp                                   #  305662 #
#                                                                            #
##############################################################################
#                                                                            #
#                           Pearson's Crystal Data                           #
#      Crystal Structure Database for Inorganic Compounds (on DVD)           #
#                              Release 2017/18                               #
#                  Editors: Pierre Villars and Karin Cenzual                 #
#                                                                            #
#   Copyright (c) ASM International & Material Phases Data System (MPDS),    #
# Switzerland & National Institute for Materials Science (NIMS), Japan, 2017 #
#                   All rights reserved. Version 2017.08                     #
#                                                                            #
#   This copy of Pearson's Crystal Data is licensed to:                      #
#   University of Alberta, Chemistry Department, 1-5 Installations License         #
#                                                                            #
##############################################################################

data_305662
_audit_creation_date                     2017-12-01
_audit_creation_method
;
Pearson's Crystal Data browser
;
#_database_code_PCD                      305662

# Entry summary

_chemical_formula_structural             'Cs Pr W~2~ O~8~'
_chemical_formula_sum                    'Cs O8 Pr W2'
_chemical_name_mineral                   ?
_chemical_compound_source                ?
_chemical_name_structure_type            KYW~2~O~8~,mS48,15
_chemical_formula_weight                 769.5

# Bibliographic data

_publ_section_title
;
p-modifications of rubidium or caesium double tungstates with the rare-earth elements
;
_journal_coden_ASTM                      RJICAQ
_journal_name_full                       'Russ. J. Inorg. Chem.'
_journal_year                            1976
_journal_volume                          21
_journal_page_first                      1968
_journal_page_last                       1969
_journal_language                        English
loop_
 _publ_author_name
 _publ_author_address
'Evdokimov A.A.'
;
Russian Academy of Sciences
All-Union Research Institute of Reagents and Especially Pure Substances
Moscow
Russia
;
'Sokolovskii V.M.'
;
All-Union Research Institute of Reagents and Pure Materials
;
'Trunov V.K.'
;
Russian Academy of Sciences
Moscow Institute of Radiotechnology, Electronics and Automation
Moscow
Russia
;

# Standardized crystallographic data

_cell_length_a                           10.925
_cell_length_b                           10.789
_cell_length_c                           7.755
_cell_angle_alpha                        90
_cell_angle_beta                         130.2
_cell_angle_gamma                        90
_cell_volume                             698.2
_cell_formula_units_Z                    4
_space_group_IT_number                   15
_space_group_name_H-M_alt                'C 1 2/c 1'
loop_
 _space_group_symop_id
 _space_group_symop_operation_xyz
 1 'x, y, z'
 2 '-x, -y, -z'
 3 '-x, y, 1/2-z'
 4 'x, -y, 1/2+z'
 5 '1/2+x, 1/2+y, z'
 6 '1/2-x, 1/2-y, -z'
 7 '1/2-x, 1/2+y, 1/2-z'
 8 '1/2+x, 1/2-y, 1/2+z'

# Atomic positions taken from type-defining entry

loop_
 _atom_type_symbol
 O
 W
 Pr
 Cs
loop_
 _atom_site_label
 _atom_site_type_symbol
 _atom_site_symmetry_multiplicity
 _atom_site_Wyckoff_symbol
 _atom_site_fract_x
 _atom_site_fract_y
 _atom_site_fract_z
 _atom_site_occupancy
 O1 O 8 f 0.0238 0.3914 0.4707 1
 O2 O 8 f 0.1263 0.0799 0.189 1
 O3 O 8 f 0.275 0.3418 0.3744 1
 W1 W 8 f 0.3036 0.0 0.2644 1
 O4 O 8 f 0.3101 0.0764 0.0586 1
 Pr1 Pr 4 e 0 0.2287 0.25 1
 Cs1 Cs 4 e 0 0.7997 0.25 1


_exptl_crystal_colour                    ?
_exptl_crystal_density_meas              ?
_exptl_crystal_density_diffrn            7.32
_cell_measurement_temperature            ?
_cell_measurement_radiation              'X-rays, Cu Ka'
_cell_measurement_reflns_used            ?
_diffrn_ambient_temperature              ?
_diffrn_measurement_device               film
_diffrn_measurement_device_type          ?
_diffrn_radiation_type                   ?
_diffrn_reflns_number                    ?
_exptl_absorpt_coefficient_mu            ?
_exptl_absorpt_correction_type           ?
_computing_structure_solution            ?
_refine_ls_number_parameters             ?
_refine_ls_number_reflns                 ?
_refine_ls_R_factor_gt                   ?
_refine_ls_wR_factor_gt                  ?

# End of data set 305662


