##############################################################################
#                                                                            #
# Cs-O-W-Yb        # CsYbW2O8 rt                                   #  545477 #
#                                                                            #
##############################################################################
#                                                                            #
#                           Pearson's Crystal Data                           #
#      Crystal Structure Database for Inorganic Compounds (on DVD)           #
#                              Release 2017/18                               #
#                  Editors: Pierre Villars and Karin Cenzual                 #
#                                                                            #
#   Copyright (c) ASM International & Material Phases Data System (MPDS),    #
# Switzerland & National Institute for Materials Science (NIMS), Japan, 2017 #
#                   All rights reserved. Version 2017.08                     #
#                                                                            #
#   This copy of Pearson's Crystal Data is licensed to:                      #
#   University of Alberta, Chemistry Department, 1-5 Installations License         #
#                                                                            #
##############################################################################

data_545477
_audit_creation_date                     2017-12-04
_audit_creation_method
;
Pearson's Crystal Data browser
;
#_database_code_PCD                      545477

# Entry summary

_chemical_formula_structural             'Cs Yb W~2~ O~8~'
_chemical_formula_sum                    'Cs O8 W2 Yb'
_chemical_name_mineral                   ?
_chemical_compound_source                ?
_chemical_name_structure_type            CsLuW~2~O~8~,mP24,13
_chemical_formula_weight                 801.6

# Bibliographic data

_publ_section_title
'Double Tungstates of Caesium and the Rare Earth Elements'                    
_journal_coden_ASTM                      RJICAQ
_journal_name_full                       'Russ. J. Inorg. Chem.'
_journal_year                            1974
_journal_volume                          19
_journal_page_first                      188
_journal_page_last                       190
_journal_language                        English
loop_
 _publ_author_name
 _publ_author_address
'Trunov V.K.'
;
Moscow M.V. Lomonosov State University
Moscow
Russia
;
'Rybakov V.K.'
;
Moscow M.V. Lomonosov State University
Moscow
Russia
;

# Standardized crystallographic data

_cell_length_a                           9.342
_cell_length_b                           5.157
_cell_length_c                           7.309
_cell_angle_alpha                        90
_cell_angle_beta                         95.73
_cell_angle_gamma                        90
_cell_volume                             350.4
_cell_formula_units_Z                    2
_space_group_IT_number                   13
_space_group_name_H-M_alt                'P 1 2/c 1'
loop_
 _space_group_symop_id
 _space_group_symop_operation_xyz
 1 'x, y, z'
 2 '-x, -y, -z'
 3 '-x, y, 1/2-z'
 4 'x, -y, 1/2+z'

# Atomic positions taken from type-defining entry

loop_
 _atom_type_symbol
 O
 W
 Cs
 Yb
loop_
 _atom_site_label
 _atom_site_type_symbol
 _atom_site_symmetry_multiplicity
 _atom_site_Wyckoff_symbol
 _atom_site_fract_x
 _atom_site_fract_y
 _atom_site_fract_z
 _atom_site_occupancy
 O1 O 4 g 0.0459 0.2329 0.0313 1
 O2 O 4 g 0.1652 0.1349 0.7325 1
 W1 W 4 g 0.1869 0.0205 0.4922 1
 O3 O 4 g 0.2198 0.334 0.3939 1
 O4 O 4 g 0.3572 0.1028 0.058 1
 Cs1 Cs 2 f 0.5 0.5919 0.25 1
 Yb1 Yb 2 e 0 0.5282 0.25 1


_exptl_crystal_colour                    ?
_exptl_crystal_density_meas              7.63
_exptl_crystal_density_diffrn            7.60
_cell_measurement_temperature            ?
_cell_measurement_radiation              'X-rays, Cu Ka'
_cell_measurement_reflns_used            ?
_diffrn_ambient_temperature              ?
_diffrn_measurement_device               film
_diffrn_measurement_device_type          ?
_diffrn_radiation_type                   ?
_diffrn_reflns_number                    ?
_exptl_absorpt_coefficient_mu            ?
_exptl_absorpt_correction_type           ?
_computing_structure_solution            ?
_refine_ls_number_parameters             ?
_refine_ls_number_reflns                 ?
_refine_ls_R_factor_gt                   ?
_refine_ls_wR_factor_gt                  ?

# Published diffraction lines

loop_
 _refln_index_h
 _refln_index_k
 _refln_index_l
 _refln_d_spacing
 _refln_intensity_meas
 1 0 0 93 50
 0 1 0 51.6 5
 1 1 0 45.2 5
 0 1 1 42.1 5
 1 1 -1 39.17 2
 0 0 2 36.39 2
 1 0 -2 35.09 1
 2 1 0 34.51 100
 1 0 2 32.8 2
 3 0 0 30.99 10
 2 0 -2 30.11 20
 0 1 2 29.72 100
 1 1 -2 29 5
 1 1 2 27.67 5
 2 0 2 27.36 15
 3 1 0 26.56 20
 0 2 0 25.79 20
 1 2 0 24.85 10
 0 2 1 24.31 5
 1 2 1 23.33 2
 4 0 0 23.25 2
 3 0 2 22.51 5
 3 1 -2 22.37 5
 0 1 3 21.93 5
 2 2 1 21.84 10
 4 1 0 21.19 10
 0 2 2 21.03 2

# End of data set 545477


