##############################################################################
#                                                                            #
# Cu-Gd-Si         # Cu11Gd3Si4                                    # 1008435 #
#                                                                            #
##############################################################################
#                                                                            #
#                           Pearson's Crystal Data                           #
#      Crystal Structure Database for Inorganic Compounds (on DVD)           #
#                              Release 2017/18                               #
#                  Editors: Pierre Villars and Karin Cenzual                 #
#                                                                            #
#   Copyright (c) ASM International & Material Phases Data System (MPDS),    #
# Switzerland & National Institute for Materials Science (NIMS), Japan, 2017 #
#                   All rights reserved. Version 2017.08                     #
#                                                                            #
#   This copy of Pearson's Crystal Data is licensed to:                      #
#   University of Alberta, Chemistry Department, 1-5 Installations License         #
#                                                                            #
##############################################################################

data_1008435
_audit_creation_date                     2017-12-04
_audit_creation_method
;
Pearson's Crystal Data browser
;
#_database_code_PCD                      1008435

# Entry summary

_chemical_formula_structural             'Cu~11~ Gd~3~ Si~4~'
_chemical_formula_sum                    'Cu11 Gd3 Si4'
_chemical_name_mineral                   ?
_chemical_compound_source                ?
_chemical_name_structure_type            Sc~3~Ni~11~Si~4~,hP36,194
_chemical_formula_weight                 1283.1

# Bibliographic data

_publ_section_title
'The crystal structure of the compound Tb~3~Cu~11~Si~4~'                      
_journal_coden_ASTM                      VLDUAB
_journal_name_full
'Visn. Lviv. Derzh. Univ., Ser. Khim.'                                        
_journal_year                            2000
_journal_volume                          39
_journal_page_first                      104
_journal_page_last                       106
_journal_language                        Ukrainian
loop_
 _publ_author_name
 _publ_author_address
'Chornobryvets L.D.'
;
Lviv Ivan Franko National University
Lviv
Ukraine
;
'Bodak O.I.'
;
Lviv Ivan Franko National University
Department of Inorganic Chemistry
Lviv
Ukraine
;

# Standardized crystallographic data

_cell_length_a                           8.495
_cell_length_b                           8.495
_cell_length_c                           8.833
_cell_angle_alpha                        90
_cell_angle_beta                         90
_cell_angle_gamma                        120
_cell_volume                             552
_cell_formula_units_Z                    2
_space_group_IT_number                   194
_space_group_name_H-M_alt                'P 63/m m c'
loop_
 _space_group_symop_id
 _space_group_symop_operation_xyz
 1 'x, y, z'
 2 '-x+y, -x, 1/2-z'
 3 '-x+y, -x, z'
 4 '-x+y, y, 1/2-z'
 5 '-x+y, y, z'
 6 '-x, -x+y, -z'
 7 '-x, -x+y, 1/2+z'
 8 '-x, -y, -z'
 9 '-x, -y, 1/2+z'
 10 '-y, -x, 1/2-z'
 11 '-y, -x, z'
 12 '-y, x-y, 1/2-z'
 13 '-y, x-y, z'
 14 'x, x-y, 1/2-z'
 15 'x, x-y, z'
 16 'x, y, 1/2-z'
 17 'x-y, -y, -z'
 18 'x-y, -y, 1/2+z'
 19 'x-y, x, -z'
 20 'x-y, x, 1/2+z'
 21 'y, -x+y, -z'
 22 'y, -x+y, 1/2+z'
 23 'y, x, -z'
 24 'y, x, 1/2+z'

# Atomic positions taken from type-defining entry

loop_
 _atom_type_symbol
 Cu
 Gd
 Si
loop_
 _atom_site_label
 _atom_site_type_symbol
 _atom_site_symmetry_multiplicity
 _atom_site_Wyckoff_symbol
 _atom_site_fract_x
 _atom_site_fract_y
 _atom_site_fract_z
 _atom_site_occupancy
 Cu1 Cu 12 k 0.1614 0.3228 0.5857 1
 Gd1 Gd 6 h 0.192 0.384 0.25 1
 Cu2 Cu 6 h 0.5618 0.1236 0.25 1
 Si1 Si 6 g 0.5 0 0 1
 Cu3 Cu 4 f 0.333333 0.666667 0.0086 1
 Si2 Si 2 b 0 0 0.25 1


_exptl_crystal_colour                    ?
_exptl_crystal_density_meas              ?
_exptl_crystal_density_diffrn            7.72
_cell_measurement_temperature            ?
_cell_measurement_radiation              'X-rays, Fe Ka'
_cell_measurement_reflns_used            ?
_diffrn_ambient_temperature              ?
_diffrn_measurement_device               'automatic diffractometer'
_diffrn_measurement_device_type          ?
_diffrn_radiation_type                   ?
_diffrn_reflns_number                    ?
_exptl_absorpt_coefficient_mu            ?
_exptl_absorpt_correction_type           ?
_computing_structure_solution            ?
_refine_ls_number_parameters             ?
_refine_ls_number_reflns                 ?
_refine_ls_R_factor_gt                   ?
_refine_ls_wR_factor_gt                  ?

# End of data set 1008435


