##############################################################################
#                                                                            #
# Cu-O-P           # Cu2[P2O7] ht mon1                             #  556396 #
#                                                                            #
##############################################################################
#                                                                            #
#                           Pearson's Crystal Data                           #
#      Crystal Structure Database for Inorganic Compounds (on DVD)           #
#                              Release 2017/18                               #
#                  Editors: Pierre Villars and Karin Cenzual                 #
#                                                                            #
#   Copyright (c) ASM International & Material Phases Data System (MPDS),    #
# Switzerland & National Institute for Materials Science (NIMS), Japan, 2017 #
#                   All rights reserved. Version 2017.08                     #
#                                                                            #
#   This copy of Pearson's Crystal Data is licensed to:                      #
#   University of Alberta, Chemistry Department, 1-5 Installations License         #
#                                                                            #
##############################################################################

data_556396
_audit_creation_date                     2017-12-04
_audit_creation_method
;
Pearson's Crystal Data browser
;
#_database_code_PCD                      556396

# Entry summary

_chemical_formula_structural             'Cu~2~ [P~2~ O~7~]'
_chemical_formula_sum                    'Cu2 O7 P2'
_chemical_name_mineral                   ?
_chemical_compound_source                ?
_chemical_name_structure_type            Sc~2~[Si~2~O~7~],mS22,12
_chemical_formula_weight                 301.0

# Bibliographic data

_publ_section_title
'The Crystal Structures of Some Divalent Metal Ion Phosphates'                
_journal_coden_ASTM                      BSCFAS
_journal_name_full                       'Bull. Soc. Chim. Fr.'
_journal_year                            1968
_journal_volume                          ?
_journal_page_first                      1744
_journal_page_last                       1747
_journal_language                        English
loop_
 _publ_author_name
 _publ_author_address
'Calvo C.'
;
Hamilton McMaster University
Department of Physics
Hamilton
Canada
;

# Standardized crystallographic data

_cell_length_a                           6.827
_cell_length_b                           8.118
_cell_length_c                           4.576
_cell_angle_alpha                        90
_cell_angle_beta                         108.85
_cell_angle_gamma                        90
_cell_volume                             240
_cell_formula_units_Z                    2
_space_group_IT_number                   12
_space_group_name_H-M_alt                'C 1 2/m 1'
loop_
 _space_group_symop_id
 _space_group_symop_operation_xyz
 1 'x, y, z'
 2 '-x, -y, -z'
 3 '-x, y, -z'
 4 'x, -y, z'
 5 '1/2+x, 1/2+y, z'
 6 '1/2-x, 1/2-y, -z'
 7 '1/2-x, 1/2+y, -z'
 8 '1/2+x, 1/2-y, z'

# Atomic positions taken from type-defining entry

loop_
 _atom_type_symbol
 O
 P
 Cu
loop_
 _atom_site_label
 _atom_site_type_symbol
 _atom_site_symmetry_multiplicity
 _atom_site_Wyckoff_symbol
 _atom_site_fract_x
 _atom_site_fract_y
 _atom_site_fract_z
 _atom_site_occupancy
 O1 O 8 j 0.23532 0.15709 0.21424 1
 P1 P 4 i 0.22319 0 0.40895 1
 O2 O 4 i 0.60818 0 0.27876 1
 Cu1 Cu 4 g 0 0.30881 0 1
 O3 O 2 c 0 0 0.5 1


_exptl_crystal_colour                    ?
_exptl_crystal_density_meas              ?
_exptl_crystal_density_diffrn            4.17
_cell_measurement_temperature            ?
_cell_measurement_radiation              X-rays
_cell_measurement_reflns_used            ?
_diffrn_ambient_temperature              ?
_diffrn_measurement_device               film
_diffrn_measurement_device_type          ?
_diffrn_radiation_type                   ?
_diffrn_reflns_number                    ?
_exptl_absorpt_coefficient_mu            ?
_exptl_absorpt_correction_type           ?
_computing_structure_solution            ?
_refine_ls_number_parameters             ?
_refine_ls_number_reflns                 ?
_refine_ls_R_factor_gt                   ?
_refine_ls_wR_factor_gt                  ?

# End of data set 556396


