##############################################################################
#                                                                            #
# Cu-O-V           # Cu2[V2O7] ht                                  #  308436 #
#                                                                            #
##############################################################################
#                                                                            #
#                           Pearson's Crystal Data                           #
#      Crystal Structure Database for Inorganic Compounds (on DVD)           #
#                              Release 2017/18                               #
#                  Editors: Pierre Villars and Karin Cenzual                 #
#                                                                            #
#   Copyright (c) ASM International & Material Phases Data System (MPDS),    #
# Switzerland & National Institute for Materials Science (NIMS), Japan, 2017 #
#                   All rights reserved. Version 2017.08                     #
#                                                                            #
#   This copy of Pearson's Crystal Data is licensed to:                      #
#   University of Alberta, Chemistry Department, 1-5 Installations License         #
#                                                                            #
##############################################################################

data_308436
_audit_creation_date                     2017-12-01
_audit_creation_method
;
Pearson's Crystal Data browser
;
#_database_code_PCD                      308436

# Entry summary

_chemical_formula_structural             'Cu~2~ [V~2~ O~7~]'
_chemical_formula_sum                    'Cu2 O7 V2'
_chemical_name_mineral                   ziesite
_chemical_compound_source                ?
_chemical_name_structure_type            Cu~2~[P~2~O~7~],mS44,15
_chemical_formula_weight                 341.0

# Bibliographic data

_publ_section_title
;
Structure cristalline de la vari\'et\'e haute temp\'erature du pyrovanadate de cuivre Cu~2~V~2~O~7~ \b
;
_journal_coden_ASTM                      CHDCAQ
_journal_name_full                       'C. R. Seances Acad. Sci., Ser. C'
_journal_year                            1973
_journal_volume                          277
_journal_page_first                      1101
_journal_page_last                       1104
_journal_language                        French
loop_
 _publ_author_name
 _publ_author_address
'Mercurio Lavaud D.'
;
Limoges University
Limoges
France
;
'Frit B.'
;
Limoges University
Limoges
France
;

# Standardized crystallographic data

_cell_length_a                           7.687
_cell_length_b                           8.007
_cell_length_c                           10.3516
_cell_angle_alpha                        90
_cell_angle_beta                         113.885
_cell_angle_gamma                        90
_cell_volume                             582.58
_cell_formula_units_Z                    4
_space_group_IT_number                   15
_space_group_name_H-M_alt                'C 1 2/c 1'
loop_
 _space_group_symop_id
 _space_group_symop_operation_xyz
 1 'x, y, z'
 2 '-x, -y, -z'
 3 '-x, y, 1/2-z'
 4 'x, -y, 1/2+z'
 5 '1/2+x, 1/2+y, z'
 6 '1/2-x, 1/2-y, -z'
 7 '1/2-x, 1/2+y, 1/2-z'
 8 '1/2+x, 1/2-y, 1/2+z'
loop_
 _atom_type_symbol
 V
 O
 Cu
loop_
 _atom_site_label
 _atom_site_type_symbol
 _atom_site_symmetry_multiplicity
 _atom_site_Wyckoff_symbol
 _atom_site_fract_x
 _atom_site_fract_y
 _atom_site_fract_z
 _atom_site_occupancy
 V V 8 f 0.177 0.0281 0.213 1
 O3 O 8 f 0.2299 0.1619 0.1024 1
 O2 O 8 f 0.3822 0.3471 0.3662 1
 O4 O 8 f 0.3851 0.0348 0.3709 1
 Cu Cu 8 f 0.4542 0.1764 0.014 1
 O1 O 4 e 0 0.1146 0.25 1


_exptl_crystal_colour                    'red, dark'
_exptl_crystal_density_meas              3.86(5)
_exptl_crystal_density_diffrn            3.89
_cell_measurement_temperature            ?
_cell_measurement_radiation              'X-rays, Co Ka'
_cell_measurement_reflns_used            ?
_diffrn_ambient_temperature              ?
_diffrn_measurement_device               'automatic diffractometer'
_diffrn_measurement_device_type          Enraf-Nonius
_diffrn_radiation_type                   'X-rays, Mo Ka'
_diffrn_reflns_number                    ?
_exptl_absorpt_coefficient_mu            ?
_exptl_absorpt_correction_type           ?
_computing_structure_solution            'Patterson and Fourier synthesis'
_refine_ls_number_parameters             ?
_refine_ls_number_reflns                 ?
_refine_ls_R_factor_gt                   0.041
_refine_ls_wR_factor_gt                  ?

# Published diffraction lines

loop_
 _refln_index_h
 _refln_index_k
 _refln_index_l
 _refln_d_spacing
 _refln_intensity_meas
 1 1 0 53.4 7
 1 1 1 42.1 3
 1 1 -2 41.1 3
 0 2 0 39.8 1
 0 2 1 36.82 3
 2 0 0 36.05 8
 1 1 2 31.64 2
 1 1 -3 30.9 8
 0 2 2 30.58 8
 2 2 -1 27.71 1
 2 2 -2 26.41 5
 1 3 -1 24.94 3
 1 1 3 24.59 2
 1 1 -4 24.05 1
 0 0 4 23.65 5
 1 3 1 23.49 1
 3 1 0 23.02 7
 2 2 2 21.11 7
 1 3 -3 20.88 7
 2 2 -4 20.57 3
 0 4 1 19.55 1
 1 1 -5 19.46 1
 1 3 3 18.52 2
 3 3 -2 18.35 5
 2 2 3 18.24 1
 2 2 -5 17.78 3
 2 4 -2 17.4 1
 4 2 -3 16.93 5
 2 0 -6 16.74 3
 4 2 0 16.42 1
 1 3 -5 16.06 7
 3 1 -6 15.64 2
 1 5 -1 15.6 2

# End of data set 308436


