##############################################################################
#                                                                            #
# Cd-Cu            # Cu2Cd                                         #  453865 #
#                                                                            #
##############################################################################
#                                                                            #
#                           Pearson's Crystal Data                           #
#      Crystal Structure Database for Inorganic Compounds (on DVD)           #
#                              Release 2017/18                               #
#                  Editors: Pierre Villars and Karin Cenzual                 #
#                                                                            #
#   Copyright (c) ASM International & Material Phases Data System (MPDS),    #
# Switzerland & National Institute for Materials Science (NIMS), Japan, 2017 #
#                   All rights reserved. Version 2017.08                     #
#                                                                            #
#   This copy of Pearson's Crystal Data is licensed to:                      #
#   University of Alberta, Chemistry Department, 1-5 Installations License         #
#                                                                            #
##############################################################################

data_453865
_audit_creation_date                     2017-12-01
_audit_creation_method
;
Pearson's Crystal Data browser
;
#_database_code_PCD                      453865

# Entry summary

_chemical_formula_structural             'Cu~2~ Cd'
_chemical_formula_sum                    'Cd Cu2'
_chemical_name_mineral                   ?
_chemical_compound_source                ?
_chemical_name_structure_type            MgZn~2~,hP12,194
_chemical_formula_weight                 239.5

# Bibliographic data

_publ_section_title
'Crystal structure of the phase Cu~2~Cd'                                      
_journal_coden_ASTM                      DANKAS
_journal_name_full                       'Dokl. Akad. Nauk SSSR'
_journal_year                            1952
_journal_volume                          82
_journal_page_first                      253
_journal_page_last                       256
_journal_language                        Russian
loop_
 _publ_author_name
 _publ_author_address
'Krypyakevych P.I.'
;
Lviv Ivan Franko National University
Department of Inorganic Chemistry
Lviv
Ukraine
;
'Gladyshevskii E.I.'
;
Lviv Ivan Franko National University
Department of Inorganic Chemistry
Lviv
Ukraine
;
'Cherkashin E.E.'
;
Lviv Ivan Franko National University
Department of Inorganic Chemistry
Lviv
Ukraine
;

# Standardized crystallographic data

_cell_length_a                           4.96
_cell_length_b                           4.96
_cell_length_c                           7.99
_cell_angle_alpha                        90
_cell_angle_beta                         90
_cell_angle_gamma                        120
_cell_volume                             170.23
_cell_formula_units_Z                    4
_space_group_IT_number                   194
_space_group_name_H-M_alt                'P 63/m m c'
loop_
 _space_group_symop_id
 _space_group_symop_operation_xyz
 1 'x, y, z'
 2 '-x+y, -x, 1/2-z'
 3 '-x+y, -x, z'
 4 '-x+y, y, 1/2-z'
 5 '-x+y, y, z'
 6 '-x, -x+y, -z'
 7 '-x, -x+y, 1/2+z'
 8 '-x, -y, -z'
 9 '-x, -y, 1/2+z'
 10 '-y, -x, 1/2-z'
 11 '-y, -x, z'
 12 '-y, x-y, 1/2-z'
 13 '-y, x-y, z'
 14 'x, x-y, 1/2-z'
 15 'x, x-y, z'
 16 'x, y, 1/2-z'
 17 'x-y, -y, -z'
 18 'x-y, -y, 1/2+z'
 19 'x-y, x, -z'
 20 'x-y, x, 1/2+z'
 21 'y, -x+y, -z'
 22 'y, -x+y, 1/2+z'
 23 'y, x, -z'
 24 'y, x, 1/2+z'
loop_
 _atom_type_symbol
 Cu
 Cd
loop_
 _atom_site_label
 _atom_site_type_symbol
 _atom_site_symmetry_multiplicity
 _atom_site_Wyckoff_symbol
 _atom_site_fract_x
 _atom_site_fract_y
 _atom_site_fract_z
 _atom_site_occupancy
 Cu2 Cu 6 h 0.167 0.334 0.25 1
 Cd Cd 4 f 0.333333 0.666667 0.563 1
 Cu1 Cu 2 a 0 0 0 1


_exptl_crystal_colour                    ?
_exptl_crystal_density_meas              ?
_exptl_crystal_density_diffrn            9.35
_cell_measurement_temperature            ?
_cell_measurement_radiation              'X-rays, Co K'
_cell_measurement_reflns_used            ?
_diffrn_ambient_temperature              ?
_diffrn_measurement_device               film
_diffrn_measurement_device_type          ?
_diffrn_radiation_type                   'X-rays, Co Ka'
_diffrn_reflns_number                    ?
_exptl_absorpt_coefficient_mu            ?
_exptl_absorpt_correction_type           ?
_computing_structure_solution            'starting values from the literature'
_refine_ls_number_parameters             ?
_refine_ls_number_reflns                 ?
_refine_ls_R_factor_gt                   ?
_refine_ls_wR_factor_gt                  ?
_pd_proc_ls_proof_R_factor               ?
_pd_proc_ls_proof_wR_factor              ?
_refine_ls_R_I_factor                    ?

# Published diffraction lines

loop_
 _refln_index_h
 _refln_index_k
 _refln_index_l
 _refln_d_spacing
 _refln_intensity_meas
 1 1 0 1.31 40
 1 0 3 1.58 80
 2 0 0 1.75 10
 1 1 2 1.81 100
 2 0 1 1.87 80
 0 0 4 2.02 15
 2 0 2 2.23 15
 1 0 4 2.49 15
 2 1 2 3.59 15
 3 0 0 3.91 15
 2 1 3 4.17 50
 3 0 2 4.41 40
 0 0 6 4.51 5
 2 0 5 4.88 45
 1 0 6 4.96 10
 2 1 4 5.05 10
 2 2 0 5.21 45
 1 1 6 5.82 5
 3 1 2 6.16 25
 2 0 6 6.24 25
 1 0 7 6.58 10
 3 1 3 6.74 50
 4 0 0 6.91 10
 4 0 1 7.03 25
 2 2 4 7.18 30
 4 0 2 7.4 15
 2 1 6 7.5 15
 3 1 4 7.61 15
 2 0 7 7.83 15
 0 0 8 7.95 5
 3 2 0 8.2 10
 3 0 6 8.4 25
 3 2 2 8.7 25
 4 1 0 9 40
 1 1 8 9.23 70
 4 1 2 9.46 100
 2 2 6 9.57 40

# End of data set 453865


