##############################################################################
#                                                                            #
# Cu-Sb-U          # Cu2U3Sb3                                      #  539560 #
#                                                                            #
##############################################################################
#                                                                            #
#                           Pearson's Crystal Data                           #
#      Crystal Structure Database for Inorganic Compounds (on DVD)           #
#                              Release 2017/18                               #
#                  Editors: Pierre Villars and Karin Cenzual                 #
#                                                                            #
#   Copyright (c) ASM International & Material Phases Data System (MPDS),    #
# Switzerland & National Institute for Materials Science (NIMS), Japan, 2017 #
#                   All rights reserved. Version 2017.08                     #
#                                                                            #
#   This copy of Pearson's Crystal Data is licensed to:                      #
#   University of Alberta, Chemistry Department, 1-5 Installations License         #
#                                                                            #
##############################################################################

data_539560
_audit_creation_date                     2017-12-04
_audit_creation_method
;
Pearson's Crystal Data browser
;
#_database_code_PCD                      539560

# Entry summary

_chemical_formula_structural             'Cu~2~ U~3~ Sb~3~'
_chemical_formula_sum                    'Cu2 Sb3 U3'
_chemical_name_mineral                   ?
_chemical_compound_source                ?
_chemical_name_structure_type            Cu~2~U~3~Sb~3~,hP16,194
_chemical_formula_weight                 1206.4

# Bibliographic data

_publ_section_title
'Structure and magnetic properties of U~3~Sb~3~Cu~2~'                         
_journal_coden_ASTM                      JCOMAH
_journal_name_full                       'J. Less-Common Met.'
_journal_year                            1986
_journal_volume                          125
_journal_page_first                      239
_journal_page_last                       245
_journal_language                        English
loop_
 _publ_author_name
 _publ_author_address
'De Mooij D.B.'
;
Philips Research Laboratory
Research Laboratory
Eindhoven
Netherlands
;
'Buschow K.H.J.'
;
Philips Research Laboratory
Research Laboratory
Eindhoven
Netherlands
;

# Standardized crystallographic data

_cell_length_a                           4.393
_cell_length_b                           4.393
_cell_length_c                           23.011
_cell_angle_alpha                        90
_cell_angle_beta                         90
_cell_angle_gamma                        120
_cell_volume                             384.6
_cell_formula_units_Z                    2
_space_group_IT_number                   194
_space_group_name_H-M_alt                'P 63/m m c'
loop_
 _space_group_symop_id
 _space_group_symop_operation_xyz
 1 'x, y, z'
 2 '-x+y, -x, 1/2-z'
 3 '-x+y, -x, z'
 4 '-x+y, y, 1/2-z'
 5 '-x+y, y, z'
 6 '-x, -x+y, -z'
 7 '-x, -x+y, 1/2+z'
 8 '-x, -y, -z'
 9 '-x, -y, 1/2+z'
 10 '-y, -x, 1/2-z'
 11 '-y, -x, z'
 12 '-y, x-y, 1/2-z'
 13 '-y, x-y, z'
 14 'x, x-y, 1/2-z'
 15 'x, x-y, z'
 16 'x, y, 1/2-z'
 17 'x-y, -y, -z'
 18 'x-y, -y, 1/2+z'
 19 'x-y, x, -z'
 20 'x-y, x, 1/2+z'
 21 'y, -x+y, -z'
 22 'y, -x+y, 1/2+z'
 23 'y, x, -z'
 24 'y, x, 1/2+z'
loop_
 _atom_type_symbol
 U
 Sb
 Cu
loop_
 _atom_site_label
 _atom_site_type_symbol
 _atom_site_symmetry_multiplicity
 _atom_site_Wyckoff_symbol
 _atom_site_fract_x
 _atom_site_fract_y
 _atom_site_fract_z
 _atom_site_occupancy
 U(2) U 4 f 0.333333 0.666667 0.0786 1
 Sb(1) Sb 4 f 0.333333 0.666667 0.6592 1
 Cu Cu 4 e 0 0 0.1853 1
 U(1) U 2 c 0.333333 0.666667 0.25 1
 Sb(2) Sb 2 a 0 0 0 1


_exptl_crystal_colour                    ?
_exptl_crystal_density_meas              ?
_exptl_crystal_density_diffrn            10.42
_cell_measurement_temperature            ?
_cell_measurement_radiation              'X-rays, Cu Ka'
_cell_measurement_reflns_used            ?
_diffrn_ambient_temperature              ?
_diffrn_measurement_device               'automatic diffractometer'
_diffrn_measurement_device_type          'Philips PW1050'
_diffrn_radiation_type                   'X-rays, Cu Ka'
_diffrn_reflns_number                    ?
_exptl_absorpt_coefficient_mu            ?
_exptl_absorpt_correction_type           ?
_computing_structure_solution            'crystal chemical considerations'
_refine_ls_number_parameters             ?
_refine_ls_number_reflns                 ?
_refine_ls_R_factor_gt                   ?
_refine_ls_wR_factor_gt                  ?
_pd_proc_ls_proof_R_factor               ?
_pd_proc_ls_proof_wR_factor              ?
_refine_ls_R_I_factor                    0.1

# Published diffraction lines

loop_
 _refln_index_h
 _refln_index_k
 _refln_index_l
 _refln_d_spacing
 _refln_intensity_meas
 0 0 6 115.7 3.0
 1 0 0 116.8 8.0
 1 0 1 118.3 14.0
 1 0 2 123.2 2.0
 1 0 3 130.7 8.0
 1 0 4 140.7 8.0
 1 0 5 152.4 100.0
 1 0 6 165.7 38.0
 1 0 7 180.5 32.0
 1 0 8 196.2 2.0
 1 1 0 205.4 81.0
 1 0 9 213 8.0
 1 0 10 230.3 12.0
 0 0 12 236.8 10.0
 2 0 0 238.6 4.0
 2 0 1 239.8 3.0
 2 0 3 246.6 3.0
 1 0 11 248.4 6.0
 2 0 5 259.8 25.0
 1 0 12 267.2 4.0
 2 0 6 268.6 8.0
 2 0 7 278.8 9.0
 2 0 8 290.1 2.0
 2 0 9 303.1 2.0
 2 0 10 317.1 3.0
 1 1 12 322.1 29.0
 2 1 1 324.6 5.0
 2 0 11 331.6 2.0
 2 1 5 341.4 16.0
 1 0 16 348.8 7.0

# End of data set 539560


