##############################################################################
#                                                                            #
# Cu-Ge            # Cu3Ge ht                                      #  452365 #
#                                                                            #
##############################################################################
#                                                                            #
#                           Pearson's Crystal Data                           #
#      Crystal Structure Database for Inorganic Compounds (on DVD)           #
#                              Release 2017/18                               #
#                  Editors: Pierre Villars and Karin Cenzual                 #
#                                                                            #
#   Copyright (c) ASM International & Material Phases Data System (MPDS),    #
# Switzerland & National Institute for Materials Science (NIMS), Japan, 2017 #
#                   All rights reserved. Version 2017.08                     #
#                                                                            #
#   This copy of Pearson's Crystal Data is licensed to:                      #
#   University of Alberta, Chemistry Department, 1-5 Installations License         #
#                                                                            #
##############################################################################

data_452365
_audit_creation_date                     2017-12-01
_audit_creation_method
;
Pearson's Crystal Data browser
;
#_database_code_PCD                      452365

# Entry summary

_chemical_formula_structural             'Cu~3~ Ge'
_chemical_formula_sum                    'Cu3 Ge'
_chemical_name_mineral                   ?
_chemical_compound_source                ?
_chemical_name_structure_type            Na~3~As,hP8,194
_chemical_formula_weight                 263.2

# Bibliographic data

_publ_section_title
;
\"Uber einige Leerstellen- und Stapelvarianten der Beta-Messing Strukturfamilie
;
_journal_coden_ASTM                      ZEMTAE
_journal_name_full                       'Z. Metallkd.'
_journal_year                            1971
_journal_volume                          62
_journal_page_first                      810
_journal_page_last                       816
_journal_language                        German
loop_
 _publ_author_name
 _publ_author_address
'Lenz J.'
;
Max Planck Society
Max Planck Institut f\"ur Metallforschung
Stuttgart
Germany
;
'Schubert K.'
;
Max Planck Society
Max Planck Institut f\"ur Metallforschung
Stuttgart
Germany
;

# Standardized crystallographic data

_cell_length_a                           4.169
_cell_length_b                           4.169
_cell_length_c                           7.499
_cell_angle_alpha                        90
_cell_angle_beta                         90
_cell_angle_gamma                        120
_cell_volume                             112.87
_cell_formula_units_Z                    2
_space_group_IT_number                   194
_space_group_name_H-M_alt                'P 63/m m c'
loop_
 _space_group_symop_id
 _space_group_symop_operation_xyz
 1 'x, y, z'
 2 '-x+y, -x, 1/2-z'
 3 '-x+y, -x, z'
 4 '-x+y, y, 1/2-z'
 5 '-x+y, y, z'
 6 '-x, -x+y, -z'
 7 '-x, -x+y, 1/2+z'
 8 '-x, -y, -z'
 9 '-x, -y, 1/2+z'
 10 '-y, -x, 1/2-z'
 11 '-y, -x, z'
 12 '-y, x-y, 1/2-z'
 13 '-y, x-y, z'
 14 'x, x-y, 1/2-z'
 15 'x, x-y, z'
 16 'x, y, 1/2-z'
 17 'x-y, -y, -z'
 18 'x-y, -y, 1/2+z'
 19 'x-y, x, -z'
 20 'x-y, x, 1/2+z'
 21 'y, -x+y, -z'
 22 'y, -x+y, 1/2+z'
 23 'y, x, -z'
 24 'y, x, 1/2+z'

# Atomic positions taken from type-defining entry

loop_
 _atom_type_symbol
 Cu
 Ge
loop_
 _atom_site_label
 _atom_site_type_symbol
 _atom_site_symmetry_multiplicity
 _atom_site_Wyckoff_symbol
 _atom_site_fract_x
 _atom_site_fract_y
 _atom_site_fract_z
 _atom_site_occupancy
 Cu1 Cu 4 f 0.333333 0.666667 0.583 1
 Ge1 Ge 2 c 0.333333 0.666667 0.25 1
 Cu2 Cu 2 b 0 0 0.25 1


_exptl_crystal_colour                    ?
_exptl_crystal_density_meas              ?
_exptl_crystal_density_diffrn            7.75
_cell_measurement_temperature            973
_cell_measurement_radiation              'X-rays, Cu Ka'
_cell_measurement_reflns_used            ?
_diffrn_ambient_temperature              ?
_diffrn_measurement_device               'high-temperature camera'
_diffrn_measurement_device_type          ?
_diffrn_radiation_type                   ?
_diffrn_reflns_number                    ?
_exptl_absorpt_coefficient_mu            ?
_exptl_absorpt_correction_type           ?
_computing_structure_solution            ?
_refine_ls_number_parameters             ?
_refine_ls_number_reflns                 ?
_refine_ls_R_factor_gt                   ?
_refine_ls_wR_factor_gt                  ?

# Published diffraction lines

loop_
 _refln_index_h
 _refln_index_k
 _refln_index_l
 _refln_d_spacing
 _refln_intensity_meas
 0 0 2 0.424 2
 0 1 0 0.46 3
 0 1 1 0.563 3
 1 1 0 1.369 8
 0 1 3 1.41 8
 1 1 2 1.795 5
 0 2 1 1.925 3
 0 2 2 2.236 5
 0 2 3 2.778 7
 1 1 4 3.073 2
 0 0 6 3.81 5
 0 3 0 4.082 5
 1 2 3 4.132 7
 0 1 6 4.261 3
 0 3 2 4.512 2
 1 1 6 5.176 7
 2 2 0 5.425 5
 0 2 6 5.623 3
 1 3 3 6.833 5
 1 2 6 6.998 2
 0 3 6 7.902 5
 0 4 3 8.2 5
 0 1 9 9.066 5
 2 2 6 9.25 5
 1 4 0 9.497 5
 2 3 3 9.558 5

# End of data set 452365


