##############################################################################
#                                                                            #
# Cu-Se-Tl         # Cu3TlSe2                                      #  539174 #
#                                                                            #
##############################################################################
#                                                                            #
#                           Pearson's Crystal Data                           #
#      Crystal Structure Database for Inorganic Compounds (on DVD)           #
#                              Release 2017/18                               #
#                  Editors: Pierre Villars and Karin Cenzual                 #
#                                                                            #
#   Copyright (c) ASM International & Material Phases Data System (MPDS),    #
# Switzerland & National Institute for Materials Science (NIMS), Japan, 2017 #
#                   All rights reserved. Version 2017.08                     #
#                                                                            #
#   This copy of Pearson's Crystal Data is licensed to:                      #
#   University of Alberta, Chemistry Department, 1-5 Installations License         #
#                                                                            #
##############################################################################

data_539174
_audit_creation_date                     2017-12-04
_audit_creation_method
;
Pearson's Crystal Data browser
;
#_database_code_PCD                      539174

# Entry summary

_chemical_formula_structural             'Cu~3~ Tl Se~2~'
_chemical_formula_sum                    'Cu3 Se2 Tl'
_chemical_name_mineral                   ?
_chemical_compound_source                ?
_chemical_name_structure_type            CsAg~3~S~2~,mS24,12
_chemical_formula_weight                 552.9

# Bibliographic data

_publ_section_title
'Crystal structure refinement of monoclinic TlCu~3~Se~2~'                     
_journal_coden_ASTM                      JCOMAH
_journal_name_full                       'J. Less-Common Met.'
_journal_year                            1990
_journal_volume                          161
_journal_page_first                      101
_journal_page_last                       108
_journal_language                        English
loop_
 _publ_author_name
 _publ_author_address
'Berger R.'
;
Groningen National University
Laboratorium voor Anorganische Chemie
Groningen
Netherlands
;
'Eriksson L.'
;
Stockholm University
Department of Structural Chemistry
Stockholm
Sweden
;

# Standardized crystallographic data

_cell_length_a                           15.2128
_cell_length_b                           4.0115
_cell_length_c                           8.3944
_cell_angle_alpha                        90
_cell_angle_beta                         111.7
_cell_angle_gamma                        90
_cell_volume                             476
_cell_formula_units_Z                    4
_space_group_IT_number                   12
_space_group_name_H-M_alt                'C 1 2/m 1'
loop_
 _space_group_symop_id
 _space_group_symop_operation_xyz
 1 'x, y, z'
 2 '-x, -y, -z'
 3 '-x, y, -z'
 4 'x, -y, z'
 5 '1/2+x, 1/2+y, z'
 6 '1/2-x, 1/2-y, -z'
 7 '1/2-x, 1/2+y, -z'
 8 '1/2+x, 1/2-y, z'
loop_
 _atom_type_symbol
 Cu
 Tl
 Se
loop_
 _atom_site_label
 _atom_site_type_symbol
 _atom_site_symmetry_multiplicity
 _atom_site_Wyckoff_symbol
 _atom_site_fract_x
 _atom_site_fract_y
 _atom_site_fract_z
 _atom_site_occupancy
 Cu2 Cu 4 i 0.0591 0 0.4026 1
 Tl Tl 4 i 0.1383 0 0.0477 1
 Se1 Se 4 i 0.1938 0 0.6812 1
 Cu3 Cu 4 i 0.3104 0 0.554 1
 Cu1 Cu 4 i 0.4128 0 0.3697 1
 Se2 Se 4 i 0.5224 0 0.2282 1


_exptl_crystal_colour                    ?
_exptl_crystal_density_meas              ?
_exptl_crystal_density_diffrn            7.72
_cell_measurement_temperature            ?
_cell_measurement_radiation              'X-rays, Mo Ka'
_cell_measurement_reflns_used            ?
_diffrn_ambient_temperature              ?
_diffrn_measurement_device               'automatic diffractometer'
_diffrn_measurement_device_type          'Siemens-STOE AED2'
_diffrn_radiation_type                   'X-rays, Mo Ka'
_diffrn_reflns_number                    ?
_diffrn_reflns_theta_min                 1.4
_diffrn_reflns_theta_max                 30
_exptl_absorpt_coefficient_mu            60.16
_exptl_absorpt_correction_type           ?
_computing_structure_solution            'starting values from the literature'
_refine_ls_number_parameters             37
_refine_ls_number_reflns                 349
_refine_ls_R_factor_gt                   0.050
_refine_ls_wR_factor_gt                  0.045

# Published diffraction lines

loop_
 _refln_index_h
 _refln_index_k
 _refln_index_l
 _refln_d_spacing
 _refln_intensity_meas
 0 0 1 0.1645 3
 2 0 0 0.1997 2
 -2 0 1 0.2301 2
 2 0 1 0.4977 3
 -2 0 2 0.5891 4
 0 0 2 0.6577 10
 1 1 0 0.6712 7
 -4 0 1 0.6967 7
 -1 1 1 0.7691 16
 4 0 0 0.8011 16
 1 1 1 0.9032 25
 -4 0 2 0.9218 65
 -3 1 1 1.0339 13
 3 1 0 1.0718 75
 2 0 2 1.1258 30
 -1 1 2 1.1948 85
 4 0 1 1.2336 30
 -2 0 3 1.2769 8
 -3 1 2 1.3267 7
 3 1 1 1.4366 100
 1 1 2 1.4621 2
 -4 0 3 1.4749 50
 -6 0 1 1.5612 5
 -5 1 1 1.7025 9
 6 0 0 1.8021 65
 -5 1 2 1.8597 3
 5 1 0 1.8724 3
 -1 1 3 1.9487 40
 4 0 2 1.9942 8
 -6 0 3 2.0753 11
 2 0 3 2.082 10
 -5 1 3 2.3468 8
 6 0 1 2.369 5
 0 2 0 2.4848 65
 -7 1 2 2.793 35
 -8 0 1 2.8319 50
 7 1 0 3.0744 6
 3 1 3 3.1554 63
 5 1 2 3.2009 4
 6 0 2 3.2645 3
 -4 2 2 3.4087 20
 1 1 4 3.571 5
 2 2 2 3.6117 14
 -2 0 5 3.6387 17
 -8 0 4 3.688 6
 7 1 1 3.7103 30
 4 2 1 3.7186 17
 8 0 1 3.9038 3
 -4 2 3 3.9629 25
 -6 2 1 4.0489 3
 0 0 5 4.111 2
 6 2 0 4.2901 5
 -5 1 5 4.3062 18
 -9 1 3 4.343 5
 5 1 3 4.3599 3
 4 2 2 4.4821 5
 3 1 4 4.506 8
 2 2 3 4.5679 10
 -8 0 5 4.6294 3
 7 1 2 4.6708 5
 6 2 1 4.855 2
 -9 1 4 4.8909 15
 -10 0 4 4.9521 2
 1 1 5 5.1147 4
 -8 2 1 5.3171 35
 10 0 1 5.8415 10
 -11 1 2 5.8575 2
 -3 3 1 6.0055 5
 6 0 4 6.0426 15
 -11 1 1 6.1049 10
 -2 2 5 6.1268 15
 -8 2 4 6.1697 15
 -1 1 6 6.1859 10
 -12 0 3 6.2721 4
 -3 3 2 6.2998 2
 3 3 1 6.4092 7
 -12 0 4 6.6191 7
 -5 3 2 6.8302 5
 -10 0 6 6.8973 7
 -1 3 3 6.9213 7
 -6 0 7 7.0374 3
 -11 1 5 7.0998 5
 -3 1 7 7.7184 4
 -7 3 2 7.7621 4

# End of data set 539174


