##############################################################################
#                                                                            #
# Cu-S-V           # Cu3V4S8                                       #  461734 #
#                                                                            #
##############################################################################
#                                                                            #
#                           Pearson's Crystal Data                           #
#      Crystal Structure Database for Inorganic Compounds (on DVD)           #
#                              Release 2017/18                               #
#                  Editors: Pierre Villars and Karin Cenzual                 #
#                                                                            #
#   Copyright (c) ASM International & Material Phases Data System (MPDS),    #
# Switzerland & National Institute for Materials Science (NIMS), Japan, 2017 #
#                   All rights reserved. Version 2017.08                     #
#                                                                            #
#   This copy of Pearson's Crystal Data is licensed to:                      #
#   University of Alberta, Chemistry Department, 1-5 Installations License         #
#                                                                            #
##############################################################################

data_461734
_audit_creation_date                     2017-12-01
_audit_creation_method
;
Pearson's Crystal Data browser
;
#_database_code_PCD                      461734

# Entry summary

_chemical_formula_structural             'Cu~4~ V~3~ S~8~'
_chemical_formula_sum                    'Cu3 S8 V4'
_chemical_name_mineral                   ?
_chemical_compound_source                ?
_chemical_name_structure_type            Cu~4~V~3~S~8~,mS30,8
_chemical_formula_weight                 663.5

# Bibliographic data

_publ_section_title
;
Structure cristalline et propri\'et\'es physiques de Cu~0.75~VS~2~
;
_journal_coden_ASTM                      MRBUAC
_journal_name_full                       'Mater. Res. Bull.'
_journal_year                            1977
_journal_volume                          12
_journal_page_first                      975
_journal_page_last                       982
_journal_language                        French
loop_
 _publ_author_name
 _publ_author_address
'Nagard N.L.'
;
Paris University
Laboratoire de Chimie Min\'erale Structurale
Paris
France
;
'Collin G.'
;
Paris V Ren\'e Descartes University
Laboratoire de Chimie Min\'erale Structurale
Paris
France
;
'Gorochov M.O.'
;
Paris University
Laboratoire de Chimie Min\'erale Structurale
Paris
France
;

# Standardized crystallographic data

_cell_length_a                           11.602
_cell_length_b                           6.657
_cell_length_c                           7.325
_cell_angle_alpha                        90
_cell_angle_beta                         121.83
_cell_angle_gamma                        90
_cell_volume                             480.7
_cell_formula_units_Z                    2
_space_group_IT_number                   8
_space_group_name_H-M_alt                'C 1 m 1'
loop_
 _space_group_symop_id
 _space_group_symop_operation_xyz
 1 'x, y, z'
 2 'x, -y, z'
 3 '1/2+x, 1/2+y, z'
 4 '1/2+x, 1/2-y, z'
loop_
 _atom_type_symbol
 V
 Cu
 S
loop_
 _atom_site_label
 _atom_site_type_symbol
 _atom_site_symmetry_multiplicity
 _atom_site_Wyckoff_symbol
 _atom_site_fract_x
 _atom_site_fract_y
 _atom_site_fract_z
 _atom_site_occupancy
 V3 V 4 b 0.0122 0.2178 0.2549 1
 Cu2 Cu 4 b 0.1398 0.2721 0.6961 1
 S5 S 4 b 0.2506 0.2524 0.4989 1
 S6 S 4 b 0.266 0.2453 0.0471 1
 S2 S 2 a 0.0 0 0.0 1
 V2 V 2 a 0.229 0 0.255 1
 Cu1 Cu 2 a 0.412 0 0.6961 1
 S3 S 2 a 0.4835 0 0.4515 1
 S4 S 2 a 0.5153 0 0.0463 1
 V1 V 2 a 0.7532 0 0.2649 1
 S1 S 2 a 0.9998 0 0.4982 1


_exptl_crystal_colour                    ?
_exptl_crystal_density_meas              ?
_exptl_crystal_density_diffrn            4.58
_cell_measurement_temperature            ?
_cell_measurement_radiation              'X-rays, Cu Ka'
_cell_measurement_reflns_used            ?
_diffrn_ambient_temperature              ?
_diffrn_measurement_device               'automatic diffractometer'
_diffrn_measurement_device_type          'Syntex P21'
_diffrn_radiation_type                   'X-rays, Mo Ka'
_diffrn_reflns_number                    ?
_exptl_absorpt_coefficient_mu            ?
_exptl_absorpt_correction_type           yes
_computing_structure_solution            'crystal chemical considerations'
_refine_ls_number_parameters             ?
_refine_ls_number_reflns                 ?
_refine_ls_R_factor_gt                   0.040
_refine_ls_wR_factor_gt                  ?

# End of data set 461734


