##############################################################################
#                                                                            #
# Cu-H-Mo-O-U      # Cu4[UO2]Mo2O8[OH]6                            #  543629 #
#                                                                            #
##############################################################################
#                                                                            #
#                           Pearson's Crystal Data                           #
#      Crystal Structure Database for Inorganic Compounds (on DVD)           #
#                              Release 2017/18                               #
#                  Editors: Pierre Villars and Karin Cenzual                 #
#                                                                            #
#   Copyright (c) ASM International & Material Phases Data System (MPDS),    #
# Switzerland & National Institute for Materials Science (NIMS), Japan, 2017 #
#                   All rights reserved. Version 2017.08                     #
#                                                                            #
#   This copy of Pearson's Crystal Data is licensed to:                      #
#   University of Alberta, Chemistry Department, 1-5 Installations License         #
#                                                                            #
##############################################################################

data_543629
_audit_creation_date                     2017-12-04
_audit_creation_method
;
Pearson's Crystal Data browser
;
#_database_code_PCD                      543629

# Entry summary

_chemical_formula_structural             'Cu~4~ [U O~2~] Mo~2~ O~8~ [O H]~6~'
_chemical_formula_sum                    'Cu4 Mo2 O16 U'
_chemical_name_mineral                   deloryite
_chemical_compound_source                ?
_chemical_name_structure_type
Cu~4~[UO~2~]Mo~2~O~8~[OH]~6~,mS46,12                                          
_chemical_formula_weight                 946.1

# Bibliographic data

_publ_section_title
'Crystal structure of Cu~4~UO~2~(MoO~4~)~2~(OH)~6~'                           
_journal_coden_ASTM                      RJICAQ
_journal_name_full                       'Russ. J. Inorg. Chem.'
_journal_year                            1993
_journal_volume                          38
_journal_page_first                      1350
_journal_page_last                       1352
_journal_language                        English
loop_
 _publ_author_name
 _publ_author_address
'Tali R.'
;
Moscow M.V. Lomonosov State University
Moscow
Russia
;
'Tabachenko V.V.'
;
Moscow M.V. Lomonosov State University
Moscow
Russia
;
'Kovba L.M.'
;
Moscow M.V. Lomonosov State University
Moscow
Russia
;

# Standardized crystallographic data

_cell_length_a                           19.8392
_cell_length_b                           6.1009
_cell_length_c                           5.5108
_cell_angle_alpha                        90
_cell_angle_beta                         104.477
_cell_angle_gamma                        90
_cell_volume                             645.8
_cell_formula_units_Z                    2
_space_group_IT_number                   12
_space_group_name_H-M_alt                'C 1 2/m 1'
loop_
 _space_group_symop_id
 _space_group_symop_operation_xyz
 1 'x, y, z'
 2 '-x, -y, -z'
 3 '-x, y, -z'
 4 'x, -y, z'
 5 '1/2+x, 1/2+y, z'
 6 '1/2-x, 1/2-y, -z'
 7 '1/2-x, 1/2+y, -z'
 8 '1/2+x, 1/2-y, z'
loop_
 _atom_type_symbol
 O
 Cu
 Mo
 U
loop_
 _atom_site_label
 _atom_site_type_symbol
 _atom_site_symmetry_multiplicity
 _atom_site_Wyckoff_symbol
 _atom_site_fract_x
 _atom_site_fract_y
 _atom_site_fract_z
 _atom_site_occupancy
 O1 O 8 j 0.204 0.2455 0.2873 1
 O5 O 8 j 0.4339 0.2492 0.1461 1
 O4 O 4 i 0.0677 0 0.286 1
 Cu1 Cu 4 i 0.24959 0 0.5046 1
 O6 O 4 i 0.3282 0 0.25 1
 Mo Mo 4 i 0.41922 0 0.2977 1
 O2 O 4 i 0.5498 0 0.378 1
 O3 O 4 i 0.8007 0 0.1689 1
 Cu2 Cu 4 e 0.25 0.25 0 1
 U U 2 a 0 0 0 1


_exptl_crystal_colour                    green
_exptl_crystal_density_meas              ?
_exptl_crystal_density_diffrn            4.87
_cell_measurement_temperature            ?
_cell_measurement_radiation              'X-rays, Cu Ka'
_cell_measurement_reflns_used            24
_diffrn_ambient_temperature              ?
_diffrn_measurement_device               'automatic diffractometer'
_diffrn_measurement_device_type          'Enraf-Nonius CAD4'
_diffrn_radiation_type                   'X-rays, Mo Ka'
_diffrn_reflns_number                    ?
_exptl_absorpt_coefficient_mu            ?
_exptl_absorpt_correction_type           yes
_computing_structure_solution            'starting values from the literature'
_refine_ls_number_parameters             ?
_refine_ls_number_reflns                 1393
_refine_ls_R_factor_gt                   0.030
_refine_ls_wR_factor_gt                  0.031

# Published diffraction lines

loop_
 _refln_index_h
 _refln_index_k
 _refln_index_l
 _refln_d_spacing
 _refln_intensity_meas
 2 0 0 96.14 7
 1 0 1 57.97 5
 0 1 0 53.33 6
 4 0 0 48.04 85
 3 0 1 44.19 40
 2 1 0 42.4 30
 -1 1 1 40.91 100
 1 1 1 37.97 10
 -3 1 1 37.33 100
 5 0 1 32.52 100
 6 0 0 32.03 30
 4 1 0 31.96 20
 -6 1 0 31.1 30
 -5 1 1 30.8 50
 0 0 2 30.5 70
 2 0 2 29.07 70
 0 1 2 26.49 7
 -2 1 2 26.37 15
 -4 2 0 26.27 60
 4 0 2 25.75 10
 7 0 1 25.03 50
 2 1 2 24.75 85
 -8 1 0 24.28 30
 -6 2 0 23.59 20
 -6 1 2 21.77 85
 3 2 1 21.27 10
 4 2 0 21.19 5
 7 1 1 20.9 5
 -7 2 1 20.77 5
 -8 2 0 20.58 15
 -2 2 2 20.43 10
 9 0 1 20.15 15
 -4 2 2 19.91 15

# End of data set 543629


