##############################################################################
#                                                                            #
# Bi-Cu-S          # Cu4Bi5S10                                     # 1000258 #
#                                                                            #
##############################################################################
#                                                                            #
#                           Pearson's Crystal Data                           #
#      Crystal Structure Database for Inorganic Compounds (on DVD)           #
#                              Release 2017/18                               #
#                  Editors: Pierre Villars and Karin Cenzual                 #
#                                                                            #
#   Copyright (c) ASM International & Material Phases Data System (MPDS),    #
# Switzerland & National Institute for Materials Science (NIMS), Japan, 2017 #
#                   All rights reserved. Version 2017.08                     #
#                                                                            #
#   This copy of Pearson's Crystal Data is licensed to:                      #
#   University of Alberta, Chemistry Department, 1-5 Installations License         #
#                                                                            #
##############################################################################

data_1000258
_audit_creation_date                     2017-12-04
_audit_creation_method
;
Pearson's Crystal Data browser
;
#_database_code_PCD                      1000258

# Entry summary

_chemical_formula_structural             'Cu~4~ Bi~5~ S~10~'
_chemical_formula_sum                    'Bi5 Cu4 S10'
_chemical_name_mineral                   ?
_chemical_compound_source                ?
_chemical_name_structure_type            Cu~4~Bi~5~S~10~,mS38,12
_chemical_formula_weight                 1619.7

# Bibliographic data

_publ_section_title
;
The Crystal Structure of Cu~4~Bi~5~S~10~ and its Relation to the Structures of Hodrushite and Cuprobismutite
;
_journal_coden_ASTM                      ACBCAR
_journal_name_full                       'Acta Crystallogr. B'
_journal_year                            1975
_journal_volume                          31
_journal_page_first                      703
_journal_page_last                       708
_journal_language                        English
loop_
 _publ_author_name
 _publ_author_address
'Mariolacos K.'
;
G\"ottingen Georg August University
Institut f\"ur Mineralogie und Kristallographie
G\"ottingen
Germany
;
'Kupcik V.'
;
G\"ottingen Georg August University
Institut f\"ur Mineralogie und Kristallographie
G\"ottingen
Germany
;
'Ohmasa M.'
;
G\"ottingen Georg August University
Institut f\"ur Mineralogie und Kristallographie
G\"ottingen
Germany
;
'Miehe G.'
;
G\"ottingen Georg August University
Institut f\"ur Mineralogie und Kristallographie
G\"ottingen
Germany
;

# Standardized crystallographic data

_cell_length_a                           17.539
_cell_length_b                           3.931
_cell_length_c                           12.847
_cell_angle_alpha                        90
_cell_angle_beta                         108.
_cell_angle_gamma                        90
_cell_volume                             842.4
_cell_formula_units_Z                    2
_space_group_IT_number                   12
_space_group_name_H-M_alt                'C 1 2/m 1'
loop_
 _space_group_symop_id
 _space_group_symop_operation_xyz
 1 'x, y, z'
 2 '-x, -y, -z'
 3 '-x, y, -z'
 4 'x, -y, z'
 5 '1/2+x, 1/2+y, z'
 6 '1/2-x, 1/2-y, -z'
 7 '1/2-x, 1/2+y, -z'
 8 '1/2+x, 1/2-y, z'
loop_
 _atom_type_symbol
 S
 Cu
 Bi
loop_
 _atom_site_label
 _atom_site_type_symbol
 _atom_site_symmetry_multiplicity
 _atom_site_Wyckoff_symbol
 _atom_site_fract_x
 _atom_site_fract_y
 _atom_site_fract_z
 _atom_site_occupancy
 S5 S 4 i 0.0182 0 0.1387 1
 Cu2 Cu 4 i 0.0982 0 0.0264 1
 S4 S 4 i 0.1537 0 0.4732 1
 S2 S 4 i 0.2414 0 0.2548 1
 Cu1 Cu 4 i 0.2924 0 0.4392 1
 S1 S 4 i 0.4557 0 0.3316 1
 Bi3 Bi 4 i 0.5873 0 0.276 1
 S3 S 4 i 0.6636 0 0.0038 1
 Bi2 Bi 4 i 0.8037 0 0.1573 1
 Bi1 Bi 2 c 0 0 0.5 1


_exptl_crystal_colour                    ?
_exptl_crystal_density_meas              ?
_exptl_crystal_density_diffrn            6.39
_cell_measurement_temperature            ?
_cell_measurement_radiation              'X-rays, Cu Ka'
_cell_measurement_reflns_used            ?
_diffrn_ambient_temperature              ?
_diffrn_measurement_device               'automatic diffractometer'
_diffrn_measurement_device_type          'STOE STADI 2'
_diffrn_radiation_type                   'X-rays, Cu Ka'
_diffrn_reflns_number                    ?
_exptl_absorpt_coefficient_mu            115.4
_exptl_absorpt_correction_type           no
_computing_structure_solution            'Patterson and Fourier synthesis'
_refine_ls_number_parameters             ?
_refine_ls_number_reflns                 796
_refine_ls_R_factor_gt                   0.122
_refine_ls_wR_factor_gt                  0.083

# End of data set 1000258


