##############################################################################
#                                                                            #
# Ce-Cu            # Cu6Ce lt                                      #  382734 #
#                                                                            #
##############################################################################
#                                                                            #
#                           Pearson's Crystal Data                           #
#      Crystal Structure Database for Inorganic Compounds (on DVD)           #
#                              Release 2017/18                               #
#                  Editors: Pierre Villars and Karin Cenzual                 #
#                                                                            #
#   Copyright (c) ASM International & Material Phases Data System (MPDS),    #
# Switzerland & National Institute for Materials Science (NIMS), Japan, 2017 #
#                   All rights reserved. Version 2017.08                     #
#                                                                            #
#   This copy of Pearson's Crystal Data is licensed to:                      #
#   University of Alberta, Chemistry Department, 1-5 Installations License         #
#                                                                            #
##############################################################################

data_382734
_audit_creation_date                     2017-12-01
_audit_creation_method
;
Pearson's Crystal Data browser
;
#_database_code_PCD                      382734

# Entry summary

_chemical_formula_structural             'Cu~6~ Ce'
_chemical_formula_sum                    'Ce Cu6'
_chemical_name_mineral                   ?
_chemical_compound_source                ?
_chemical_name_structure_type            Cu~6~La,mP28,14
_chemical_formula_weight                 521.4

# Bibliographic data

_publ_section_title
'Magnetic Structure of (Ba~1-x~Sr~x~)~2~Zn~2~Fe~12~O~22~ (x= 0-1.0)'          
_journal_coden_ASTM                      JUPSAU
_journal_name_full                       'J. Phys. Soc. Jpn.'
_journal_year                            1985
_journal_volume                          54
_journal_page_first                      771
_journal_page_last                       780
_journal_language                        English
loop_
 _publ_author_name
 _publ_author_address
'Momozawa N.'
;
Noda Chiba Tokyo University of Science
Department of Physics
Noda / Chiba
Japan
;
'Yamaguchi Y.'
;
Sendai Miyagi Tohoku University
Research Institute of Iron, Steel and Other Metals
Sendai / Miyagi
Japan
;
'Takei H.'
;
Sendai Miyagi Tohoku University
Research Institute of Iron, Steel and Other Metals
Sendai / Miyagi
Japan
;
'Mita M.'
;
Noda Chiba Tokyo University of Science
Department of Physics
Noda / Chiba
Japan
;

# Standardized crystallographic data

_cell_length_a                           5.089
_cell_length_b                           10.137
_cell_length_c                           8.073
_cell_angle_alpha                        90
_cell_angle_beta                         90.83
_cell_angle_gamma                        90
_cell_volume                             416.4
_cell_formula_units_Z                    4
_space_group_IT_number                   14
_space_group_name_H-M_alt                'P 1 21/c 1'
loop_
 _space_group_symop_id
 _space_group_symop_operation_xyz
 1 'x, y, z'
 2 '-x, -y, -z'
 3 '-x, 1/2+y, 1/2-z'
 4 'x, 1/2-y, 1/2+z'

# Atomic positions taken from type-defining entry

loop_
 _atom_type_symbol
 Cu
 Ce
loop_
 _atom_site_label
 _atom_site_type_symbol
 _atom_site_symmetry_multiplicity
 _atom_site_Wyckoff_symbol
 _atom_site_fract_x
 _atom_site_fract_y
 _atom_site_fract_z
 _atom_site_occupancy
 Cu1 Cu 4 e 0.0023 0.3084 0.0674 1
 Ce1 Ce 4 e 0.2369 0.063 0.2381 1
 Cu2 Cu 4 e 0.2486 0.7552 0.1815 1
 Cu3 Cu 4 e 0.2530 0.516 0.1004 1
 Cu4 Cu 4 e 0.2610 0.3581 0.3514 1
 Cu5 Cu 4 e 0.4908 0.3117 0.0625 1
 Cu6 Cu 4 e 0.7153 0.0991 0.0649 1


_exptl_crystal_colour                    ?
_exptl_crystal_density_meas              ?
_exptl_crystal_density_diffrn            8.32
_cell_measurement_temperature            89
_cell_measurement_radiation              X-rays
_cell_measurement_reflns_used            ?
_diffrn_ambient_temperature              ?
_diffrn_measurement_device               'automatic diffractometer'
_diffrn_measurement_device_type          ?
_diffrn_radiation_type                   ?
_diffrn_reflns_number                    ?
_exptl_absorpt_coefficient_mu            ?
_exptl_absorpt_correction_type           ?
_computing_structure_solution            ?
_refine_ls_number_parameters             ?
_refine_ls_number_reflns                 ?
_refine_ls_R_factor_gt                   ?
_refine_ls_wR_factor_gt                  ?

# End of data set 382734


