##############################################################################
#                                                                            #
# Cu-H-N-O         # Cu[NO3]2[H2O]                                 #  304269 #
#                                                                            #
##############################################################################
#                                                                            #
#                           Pearson's Crystal Data                           #
#      Crystal Structure Database for Inorganic Compounds (on DVD)           #
#                              Release 2017/18                               #
#                  Editors: Pierre Villars and Karin Cenzual                 #
#                                                                            #
#   Copyright (c) ASM International & Material Phases Data System (MPDS),    #
# Switzerland & National Institute for Materials Science (NIMS), Japan, 2017 #
#                   All rights reserved. Version 2017.08                     #
#                                                                            #
#   This copy of Pearson's Crystal Data is licensed to:                      #
#   University of Alberta, Chemistry Department, 1-5 Installations License         #
#                                                                            #
##############################################################################

data_304269
_audit_creation_date                     2017-12-01
_audit_creation_method
;
Pearson's Crystal Data browser
;
#_database_code_PCD                      304269

# Entry summary

_chemical_formula_structural             'Cu [N O~3~]~2~ [H~2~ O]'
_chemical_formula_sum                    'Cu H2 N2 O7'
_chemical_name_mineral                   ?
_chemical_compound_source                ?
_chemical_name_structure_type            Cu[NO~3~]~2~[H~2~O],mP40,14
_chemical_formula_weight                 205.6

# Bibliographic data

_publ_section_title
;
Synthesis and X-ray diffraction study of new copper(II) nitrates Cu(NO~3~)~2~.H~2~O and \b-Cu(NO~3~)~2~
;
_journal_coden_ASTM                      RJICAQ
_journal_name_full                       'Russ. J. Inorg. Chem.'
_journal_year                            1996
_journal_volume                          41
_journal_page_first                      1411
_journal_page_last                       1418
_journal_language                        English
loop_
 _publ_author_name
 _publ_author_address
'Troyanov S.I.'
;
Moscow M.V. Lomonosov State University
Moscow
Russia
;
'Morozov I.V.'
;
Moscow M.V. Lomonosov State University
Moscow
Russia
;
'Znamenkov K.O.'
;
Moscow M.V. Lomonosov State University
Moscow
Russia
;
'Korenev Y.M.'
;
Moscow M.V. Lomonosov State University
Moscow
Russia
;

# Standardized crystallographic data

_cell_length_a                           6.377
_cell_length_b                           8.548
_cell_length_c                           9.769
_cell_angle_alpha                        90
_cell_angle_beta                         100.41
_cell_angle_gamma                        90
_cell_volume                             523.7
_cell_formula_units_Z                    4
_space_group_IT_number                   14
_space_group_name_H-M_alt                'P 1 21/c 1'
loop_
 _space_group_symop_id
 _space_group_symop_operation_xyz
 1 'x, y, z'
 2 '-x, -y, -z'
 3 '-x, 1/2+y, 1/2-z'
 4 'x, 1/2-y, 1/2+z'
loop_
 _atom_type_symbol
 O
 Cu
 N
 H
loop_
 _atom_site_label
 _atom_site_type_symbol
 _atom_site_symmetry_multiplicity
 _atom_site_Wyckoff_symbol
 _atom_site_fract_x
 _atom_site_fract_y
 _atom_site_fract_z
 _atom_site_occupancy
 O(4) O 4 e 0.0432 0.3798 0.2645 1
 Cu Cu 4 e 0.0516 0.08114 0.16553 1
 N(2) N 4 e 0.1349 0.3971 0.1594 1
 O(5) O 4 e 0.1606 0.2742 0.0922 1
 O(1) O 4 e 0.1786 0.565 0.4961 1
 O(6) O 4 e 0.1925 0.5242 0.1265 1
 O(7) O 4 e 0.2888 0.0752 0.3189 1
 O(2) O 4 e 0.5348 0.3413 0.3811 1
 O(3) O 4 e 0.6538 0.2528 0.0852 1
 N(1) N 4 e 0.6628 0.3371 0.4901 1
 H(2) H 4 e 0.34 0.0 0.321 1
 H(1) H 4 e 0.35 0.14 0.341 1


_exptl_crystal_colour                    blue
_exptl_crystal_density_meas              ?
_exptl_crystal_density_diffrn            2.61
_cell_measurement_temperature            ?
_cell_measurement_radiation              'X-rays, Cu Ka'
_cell_measurement_reflns_used            24
_diffrn_ambient_temperature              ?
_diffrn_measurement_device               'automatic diffractometer'
_diffrn_measurement_device_type          'Enraf-Nonius CAD4'
_diffrn_radiation_type                   'X-rays, Mo Ka'
_diffrn_reflns_number                    ?
_exptl_absorpt_coefficient_mu            4.16
_exptl_absorpt_correction_type           ?
_computing_structure_solution            'direct methods, Patterson synthesis'
_refine_ls_number_parameters             97
_refine_ls_number_reflns                 910
_refine_ls_R_factor_gt                   0.032
_refine_ls_wR_factor_gt                  0.034

# Published diffraction lines

loop_
 _refln_index_h
 _refln_index_k
 _refln_index_l
 _refln_d_spacing
 _refln_intensity_meas
 0 1 1 63.61 100
 -1 1 1 47.77 15
 0 2 0 42.91 10
 0 1 2 42.19 20
 -1 1 2 37.85 80
 1 2 0 35.49 45
 -1 2 1 34.5 20
 0 2 2 32.14 10
 2 1 0 29.603 40
 -1 1 3 29.215 20
 2 1 1 27.015 10
 -1 2 3 25.105 10
 2 0 2 24.445 30
 -2 1 3 23.895 35
 -1 3 2 23.67 30
 -2 2 3 21.502 5
 -2 0 4 21.038 5
 0 4 1 20.937 10
 -3 1 1 20.701 5
 1 1 4 20.574 5
 -2 3 2 20.375 20
 2 1 3 20.103 5

# End of data set 304269


