##############################################################################
#                                                                            #
# Cu-O-Te          # Cu[TeO3] mon                                  # 1100814 #
#                                                                            #
##############################################################################
#                                                                            #
#                           Pearson's Crystal Data                           #
#      Crystal Structure Database for Inorganic Compounds (on DVD)           #
#                              Release 2017/18                               #
#                  Editors: Pierre Villars and Karin Cenzual                 #
#                                                                            #
#   Copyright (c) ASM International & Material Phases Data System (MPDS),    #
# Switzerland & National Institute for Materials Science (NIMS), Japan, 2017 #
#                   All rights reserved. Version 2017.08                     #
#                                                                            #
#   This copy of Pearson's Crystal Data is licensed to:                      #
#   University of Alberta, Chemistry Department, 1-5 Installations License         #
#                                                                            #
##############################################################################

data_1100814
_audit_creation_date                     2017-12-04
_audit_creation_method
;
Pearson's Crystal Data browser
;
#_database_code_PCD                      1100814

# Entry summary

_chemical_formula_structural             'Cu [Te O~3~]'
_chemical_formula_sum                    'Cu O3 Te'
_chemical_name_mineral                   ?
_chemical_compound_source                ?
_chemical_name_structure_type            Cu[TeO~3~],mP20,14
_chemical_formula_weight                 239.1

# Bibliographic data

_publ_section_title
;
Dimorphism of Hydrothermal Synthesized Copper Tellurite, CuTeO~3~: The Structure of a Monoclinic Representative
;
_journal_coden_ASTM                      JSSCBI
_journal_name_full                       'J. Solid State Chem.'
_journal_year                            1987
_journal_volume                          71
_journal_page_first                      291
_journal_page_last                       295
_journal_language                        English
loop_
 _publ_author_name
 _publ_author_address
'Pertlik F.'
;
Vienna University
Institut f\"ur Mineralogie und Kristallographie
Vienna
Austria
;

# Standardized crystallographic data

_cell_length_a                           5.214
_cell_length_b                           9.108
_cell_length_c                           7.5684
_cell_angle_alpha                        90
_cell_angle_beta                         128.273
_cell_angle_gamma                        90
_cell_volume                             282.2
_cell_formula_units_Z                    4
_space_group_IT_number                   14
_space_group_name_H-M_alt                'P 1 21/c 1'
loop_
 _space_group_symop_id
 _space_group_symop_operation_xyz
 1 'x, y, z'
 2 '-x, -y, -z'
 3 '-x, 1/2+y, 1/2-z'
 4 'x, 1/2-y, 1/2+z'
loop_
 _atom_type_symbol
 O
 Cu
 Te
loop_
 _atom_site_label
 _atom_site_type_symbol
 _atom_site_symmetry_multiplicity
 _atom_site_Wyckoff_symbol
 _atom_site_fract_x
 _atom_site_fract_y
 _atom_site_fract_z
 _atom_site_occupancy
 O2 O 4 e 0.0751 0.637 0.1391 1
 Cu Cu 4 e 0.127 0.5187 0.3695 1
 O1 O 4 e 0.1997 0.1071 0.1096 1
 Te Te 4 e 0.3419 0.2975 0.0995 1
 O3 O 4 e 0.3574 0.3604 0.3482 1


_exptl_crystal_colour                    green
_exptl_crystal_density_meas              ?
_exptl_crystal_density_diffrn            5.63
_cell_measurement_temperature            ?
_cell_measurement_radiation              'X-rays, Mo Ka'
_cell_measurement_reflns_used            25
_diffrn_ambient_temperature              ?
_diffrn_measurement_device               'automatic diffractometer'
_diffrn_measurement_device_type          'STOE AED2'
_diffrn_radiation_type                   'X-rays, Mo Ka'
_diffrn_reflns_number                    2630
_diffrn_reflns_theta_min                 1
_diffrn_reflns_theta_max                 35
_exptl_absorpt_coefficient_mu            17.7
_exptl_absorpt_correction_type           empirical
_computing_structure_solution            'direct methods, Fourier synthesis'
_refine_ls_number_parameters             47
_refine_ls_number_reflns                 1143
_refine_ls_R_factor_gt                   0.035
_refine_ls_wR_factor_gt                  0.031

# Published diffraction lines

loop_
 _refln_index_h
 _refln_index_k
 _refln_index_l
 _refln_d_spacing
 _refln_intensity_meas
 0 1 1 46.8 10
 0 2 0 45.5 10
 1 1 0 45.1 5
 1 0 1 37.5 ?
 1 1 -1 37.3 100
 0 2 1 36.1 ?
 1 1 1 34.7 40
 1 2 0 34.2 40
 1 2 -1 30.4 60
 1 2 1 29 50
 0 1 2 28.2 50
 0 3 1 27 40
 2 0 0 26 70
 1 1 -2 25.7 ?
 0 2 2 24.9 ?
 1 3 -1 24.4 5
 1 1 2 24 10
 1 3 1 23.6 5
 0 4 0 22.8 ?
 1 2 2 21.8 ?
 0 4 1 21.3 20
 0 3 2 21.2 ?
 1 4 0 20.9 ?
 2 1 -2 20 30
 0 1 3 19.4 ?
 2 3 -1 19.1 20
 1 0 -3 19.1 ?
 2 1 2 18.4 20
 1 2 -3 17.6 10
 0 5 1 17.4 ?
 2 4 0 17.1 10
 3 1 -1 16.7 15
 0 3 3 16.6 ?
 2 4 1 16.2 10
 3 1 1 16 5

# End of data set 1100814


