##############################################################################
#                                                                            #
# Al-Cl-Cu         # CuAl2Cl8                                      # 1100353 #
#                                                                            #
##############################################################################
#                                                                            #
#                           Pearson's Crystal Data                           #
#      Crystal Structure Database for Inorganic Compounds (on DVD)           #
#                              Release 2017/18                               #
#                  Editors: Pierre Villars and Karin Cenzual                 #
#                                                                            #
#   Copyright (c) ASM International & Material Phases Data System (MPDS),    #
# Switzerland & National Institute for Materials Science (NIMS), Japan, 2017 #
#                   All rights reserved. Version 2017.08                     #
#                                                                            #
#   This copy of Pearson's Crystal Data is licensed to:                      #
#   University of Alberta, Chemistry Department, 1-5 Installations License         #
#                                                                            #
##############################################################################

data_1100353
_audit_creation_date                     2017-12-04
_audit_creation_method
;
Pearson's Crystal Data browser
;
#_database_code_PCD                      1100353

# Entry summary

_chemical_formula_structural             'Cu Al~2~ Cl~8~'
_chemical_formula_sum                    'Al2 Cl8 Cu'
_chemical_name_mineral                   ?
_chemical_compound_source                ?
_chemical_name_structure_type            CuAl~2~Cl~8~,mP22,14
_chemical_formula_weight                 401.1

# Bibliographic data

_publ_section_title
;
Re-Examination Shows that Copper(II) Tetrachloroaluminium, Cu(AlCl~4~)~2~, is Monoclinic and not Triclinic as Originally Stated
;
_journal_coden_ASTM                      ACSCEE
_journal_name_full                       'Acta Crystallogr. C'
_journal_year                            1995
_journal_volume                          51
_journal_page_first                      1739
_journal_page_last                       1741
_journal_language                        English
loop_
 _publ_author_name
 _publ_author_address
'Herbstein F.H.'
;
Haifa Israel Technion Institute of Technology
Department of Chemistry
Haifa
Israel
;
'Kapon M.'
;
Haifa Israel Technion Institute of Technology
Department of Chemistry
Haifa
Israel
;

# Standardized crystallographic data

_cell_length_a                           6.582
_cell_length_b                           7.362
_cell_length_c                           12.265
_cell_angle_alpha                        90
_cell_angle_beta                         94.03
_cell_angle_gamma                        90
_cell_volume                             592.9
_cell_formula_units_Z                    2
_space_group_IT_number                   14
_space_group_name_H-M_alt                'P 1 21/c 1'
loop_
 _space_group_symop_id
 _space_group_symop_operation_xyz
 1 'x, y, z'
 2 '-x, -y, -z'
 3 '-x, 1/2+y, 1/2-z'
 4 'x, 1/2-y, 1/2+z'
loop_
 _atom_type_symbol
 Cl
 Al
 Cu
loop_
 _atom_site_label
 _atom_site_type_symbol
 _atom_site_symmetry_multiplicity
 _atom_site_Wyckoff_symbol
 _atom_site_fract_x
 _atom_site_fract_y
 _atom_site_fract_z
 _atom_site_occupancy
 Cl1 Cl 4 e 0.1115 0.7444 0.4056 1
 Cl3 Cl 4 e 0.1665 0.2331 0.3503 1
 Al1 Al 4 e 0.1918 0.2649 0.1812 1
 Cl2 Cl 4 e 0.2992 0.0131 0.1086 1
 Cl4 Cl 4 e 0.3576 0.4876 0.1365 1
 Cu Cu 2 a 0 0 0 1


_exptl_crystal_colour                    ?
_exptl_crystal_density_meas              ?
_exptl_crystal_density_diffrn            2.25
_cell_measurement_temperature            ?
_cell_measurement_radiation              ?
_cell_measurement_reflns_used            ?
_diffrn_ambient_temperature              ?
_diffrn_measurement_device               'automatic diffractometer'
_diffrn_measurement_device_type          ?
_diffrn_radiation_type                   'X-rays, Mo Ka'
_diffrn_reflns_number                    ?
_exptl_absorpt_coefficient_mu            ?
_exptl_absorpt_correction_type           ?
_computing_structure_solution            'starting values from the literature'
_refine_ls_number_parameters             ?
_refine_ls_number_reflns                 2594
_refine_ls_R_factor_gt                   0.110
_refine_ls_wR_factor_gt                  ?

# End of data set 1100353


