##############################################################################
#                                                                            #
# Cl-Cu-H-O        # CuCl[OH] mon                                  # 1503864 #
#                                                                            #
##############################################################################
#                                                                            #
#                           Pearson's Crystal Data                           #
#      Crystal Structure Database for Inorganic Compounds (on DVD)           #
#                              Release 2017/18                               #
#                  Editors: Pierre Villars and Karin Cenzual                 #
#                                                                            #
#   Copyright (c) ASM International & Material Phases Data System (MPDS),    #
# Switzerland & National Institute for Materials Science (NIMS), Japan, 2017 #
#                   All rights reserved. Version 2017.08                     #
#                                                                            #
#   This copy of Pearson's Crystal Data is licensed to:                      #
#   University of Alberta, Chemistry Department, 1-5 Installations License         #
#                                                                            #
##############################################################################

data_1503864
_audit_creation_date                     2017-12-05
_audit_creation_method
;
Pearson's Crystal Data browser
;
#_database_code_PCD                      1503864

# Entry summary

_chemical_formula_structural             'Cu Cl [O H]'
_chemical_formula_sum                    'Cl Cu H O'
_chemical_name_mineral                   ?
_chemical_compound_source                ?
_chemical_name_structure_type            CuCl[OH],mP12,14
_chemical_formula_weight                 116.0

# Bibliographic data

_publ_section_title
;
Synthesis and crystal structures of Cd(OH)Cl and Cu(OH)Cl and relationship to brucite type
;
_journal_coden_ASTM                      JSSCBI
_journal_name_full                       'J. Solid State Chem.'
_journal_year                            2000
_journal_volume                          151
_journal_page_first                      308
_journal_page_last                       312
_journal_language                        English
loop_
 _publ_author_name
 _publ_author_address
'Cudennec Y.'
;
Rennes National Institute of Applied Sciences
Groupe de Recherche en Chimie et M\'etallurgie
Rennes
France
;
'Riou A.'
;
Angers University
Laboratoire IMMO
Angers
France
;
'G\'erault Y.'
;
Rennes National Institute of Applied Sciences
Groupe de Recherche en Chimie et M\'etallurgie
Rennes
France
;
'Lecerf A.'
;
Rennes National Institute of Applied Sciences
Groupe de Recherche en Chimie et M\'etallurgie
Rennes
France
;

# Standardized crystallographic data

_cell_length_a                           6.1254
_cell_length_b                           6.6649
_cell_length_c                           5.558
_cell_angle_alpha                        90
_cell_angle_beta                         115.005
_cell_angle_gamma                        90
_cell_volume                             205.6
_cell_formula_units_Z                    4
_space_group_IT_number                   14
_space_group_name_H-M_alt                'P 1 21/c 1'
loop_
 _space_group_symop_id
 _space_group_symop_operation_xyz
 1 'x, y, z'
 2 '-x, -y, -z'
 3 '-x, 1/2+y, 1/2-z'
 4 'x, 1/2-y, 1/2+z'
loop_
 _atom_type_symbol
 Cu
 O
 Cl
 H
loop_
 _atom_site_label
 _atom_site_type_symbol
 _atom_site_symmetry_multiplicity
 _atom_site_Wyckoff_symbol
 _atom_site_fract_x
 _atom_site_fract_y
 _atom_site_fract_z
 _atom_site_occupancy
 Cu Cu 4 e 0.03201 0.38228 0.24624 1
 O O 4 e 0.1193 0.6478 0.1511 1
 Cl Cl 4 e 0.3115 0.0907 0.1781 1
 H H 4 e 0.674 0.128 0.146 1


_exptl_crystal_colour                    'green olive'
_exptl_crystal_density_meas              ?
_exptl_crystal_density_diffrn            3.75
_cell_measurement_temperature            ?
_cell_measurement_radiation              'X-rays, Mo Ka'
_cell_measurement_reflns_used            25
_diffrn_ambient_temperature              ?
_diffrn_measurement_device               'automatic diffractometer'
_diffrn_measurement_device_type          'Enraf-Nonius MACH3'
_diffrn_radiation_type                   'X-rays, Mo Ka'
_diffrn_reflns_number                    1040
_diffrn_reflns_theta_min                 2
_diffrn_reflns_theta_max                 30
_exptl_absorpt_coefficient_mu            11.57
_exptl_absorpt_correction_type           empirical
_computing_structure_solution            'Patterson and Fourier synthesis'
_refine_ls_number_parameters             32
_refine_ls_number_reflns                 799
_refine_ls_R_factor_gt                   0.051
_refine_ls_wR_factor_gt                  0.069

# End of data set 1503864


