##############################################################################
#                                                                            #
# Cl-Cu            # CuCl2 hp                                      #  541642 #
#                                                                            #
##############################################################################
#                                                                            #
#                           Pearson's Crystal Data                           #
#      Crystal Structure Database for Inorganic Compounds (on DVD)           #
#                              Release 2017/18                               #
#                  Editors: Pierre Villars and Karin Cenzual                 #
#                                                                            #
#   Copyright (c) ASM International & Material Phases Data System (MPDS),    #
# Switzerland & National Institute for Materials Science (NIMS), Japan, 2017 #
#                   All rights reserved. Version 2017.08                     #
#                                                                            #
#   This copy of Pearson's Crystal Data is licensed to:                      #
#   University of Alberta, Chemistry Department, 1-5 Installations License         #
#                                                                            #
##############################################################################

data_541642
_audit_creation_date                     2017-12-04
_audit_creation_method
;
Pearson's Crystal Data browser
;
#_database_code_PCD                      541642

# Entry summary

_chemical_formula_structural             'Cu Cl~2~'
_chemical_formula_sum                    'Cl2 Cu'
_chemical_name_mineral                   tolbachite
_chemical_compound_source                ?
_chemical_name_structure_type            CuBr~2~,mS6,12
_chemical_formula_weight                 134.5

# Bibliographic data

_publ_section_title
;
The Crystal Structure of Anhydrous Cupric Chloride, and the Stereochemistry of the Cupric Atom
;
_journal_coden_ASTM                      JCSOA9
_journal_name_full                       'J. Chem. Soc.'
_journal_year                            1947
_journal_volume                          ?
_journal_page_first                      1670
_journal_page_last                       1675
_journal_language                        English
loop_
 _publ_author_name
 _publ_author_address
'Wells A.F.'
;
Imperial Chemical Industries Ltd.
Research Laboratory
Manchester
United Kingdom
;

# Standardized crystallographic data

_cell_length_a                           6.85
_cell_length_b                           3.3
_cell_length_c                           6.6736
_cell_angle_alpha                        90
_cell_angle_beta                         120.621
_cell_angle_gamma                        90
_cell_volume                             129.82
_cell_formula_units_Z                    2
_space_group_IT_number                   12
_space_group_name_H-M_alt                'C 1 2/m 1'
loop_
 _space_group_symop_id
 _space_group_symop_operation_xyz
 1 'x, y, z'
 2 '-x, -y, -z'
 3 '-x, y, -z'
 4 'x, -y, z'
 5 '1/2+x, 1/2+y, z'
 6 '1/2-x, 1/2-y, -z'
 7 '1/2-x, 1/2+y, -z'
 8 '1/2+x, 1/2-y, z'
loop_
 _atom_type_symbol
 Cl
 Cu
loop_
 _atom_site_label
 _atom_site_type_symbol
 _atom_site_symmetry_multiplicity
 _atom_site_Wyckoff_symbol
 _atom_site_fract_x
 _atom_site_fract_y
 _atom_site_fract_z
 _atom_site_occupancy
 Cl Cl 4 i 0.75 0 0.25 1
 Cu Cu 2 a 0 0 0 1


_exptl_crystal_colour                    brown
_exptl_crystal_density_meas              ?
_exptl_crystal_density_diffrn            3.44
_cell_measurement_temperature            ?
_cell_measurement_radiation              'X-rays, Cu Ka'
_cell_measurement_reflns_used            ?
_diffrn_ambient_temperature              ?
_diffrn_measurement_device               photographs
_diffrn_measurement_device_type          ?
_diffrn_radiation_type                   'X-rays, Cu Ka'
_diffrn_reflns_number                    ?
_exptl_absorpt_coefficient_mu            ?
_exptl_absorpt_correction_type           ?
_computing_structure_solution            'starting values from the literature'
_refine_ls_number_parameters             ?
_refine_ls_number_reflns                 ?
_refine_ls_R_factor_gt                   ?
_refine_ls_wR_factor_gt                  ?

# End of data set 541642


