##############################################################################
#                                                                            #
# Cr-Cu-O-W        # CuCrW2O8                                      #  305994 #
#                                                                            #
##############################################################################
#                                                                            #
#                           Pearson's Crystal Data                           #
#      Crystal Structure Database for Inorganic Compounds (on DVD)           #
#                              Release 2017/18                               #
#                  Editors: Pierre Villars and Karin Cenzual                 #
#                                                                            #
#   Copyright (c) ASM International & Material Phases Data System (MPDS),    #
# Switzerland & National Institute for Materials Science (NIMS), Japan, 2017 #
#                   All rights reserved. Version 2017.08                     #
#                                                                            #
#   This copy of Pearson's Crystal Data is licensed to:                      #
#   University of Alberta, Chemistry Department, 1-5 Installations License         #
#                                                                            #
##############################################################################

data_305994
_audit_creation_date                     2017-12-01
_audit_creation_method
;
Pearson's Crystal Data browser
;
#_database_code_PCD                      305994

# Entry summary

_chemical_formula_structural             'Cu Cr W~2~ O~8~'
_chemical_formula_sum                    'Cr Cu O8 W2'
_chemical_name_mineral                   ?
_chemical_compound_source                ?
_chemical_name_structure_type            LiW~2~FeO~8~,mS48,15
_chemical_formula_weight                 611.2

# Bibliographic data

_publ_section_title
;
Double tungstates of Cu^1+^ and M^3+^ (In, Sc, Ga, and Cr) having the composition CuM(WO~4~)~2~
;
_journal_coden_ASTM                      RJICAQ
_journal_name_full                       'Russ. J. Inorg. Chem.'
_journal_year                            1981
_journal_volume                          26
_journal_page_first                      1210
_journal_page_last                       1211
_journal_language                        English
loop_
 _publ_author_name
 _publ_author_address
'Klevtsov P.V.'
;
Russian Academy of Sciences
Nikolaev A.V. Institute of Inorganic Chemistry
Novosibirsk
Russia
;
'Perepelitsa A.P.'
;
Kiev Taras Shevchenko National University
Kiev Technological Institute for the Food Industry
Kiev
Ukraine
;

# Standardized crystallographic data

_cell_length_a                           9.28
_cell_length_b                           11.41
_cell_length_c                           4.919
_cell_angle_alpha                        90
_cell_angle_beta                         90.4
_cell_angle_gamma                        90
_cell_volume                             520.8
_cell_formula_units_Z                    4
_space_group_IT_number                   15
_space_group_name_H-M_alt                'C 1 2/c 1'
loop_
 _space_group_symop_id
 _space_group_symop_operation_xyz
 1 'x, y, z'
 2 '-x, -y, -z'
 3 '-x, y, 1/2-z'
 4 'x, -y, 1/2+z'
 5 '1/2+x, 1/2+y, z'
 6 '1/2-x, 1/2-y, -z'
 7 '1/2-x, 1/2+y, 1/2-z'
 8 '1/2+x, 1/2-y, 1/2+z'

# Atomic positions taken from type-defining entry

loop_
 _atom_type_symbol
 O
 W
 Cr
 Cu
loop_
 _atom_site_label
 _atom_site_type_symbol
 _atom_site_symmetry_multiplicity
 _atom_site_Wyckoff_symbol
 _atom_site_fract_x
 _atom_site_fract_y
 _atom_site_fract_z
 _atom_site_occupancy
 O1 O 8 f 0.108 0.178 0.58 1
 O2 O 8 f 0.113 0.062 0.06 1
 O3 O 8 f 0.122 0.303 0.111 1
 W1 W 8 f 0.246 0.4086 0.247 1
 O4 O 8 f 0.356 0.052 0.429 1
 Cr1 Cr 4 e 0 0.164 0.25 1
 Cu1 Cu 4 e 0 0.673 0.25 1


_exptl_crystal_colour                    black
_exptl_crystal_density_meas              ?
_exptl_crystal_density_diffrn            7.80
_cell_measurement_temperature            298
_cell_measurement_radiation              'X-rays, Cu Ka'
_cell_measurement_reflns_used            ?
_diffrn_ambient_temperature              ?
_diffrn_measurement_device               film
_diffrn_measurement_device_type          ?
_diffrn_radiation_type                   ?
_diffrn_reflns_number                    ?
_exptl_absorpt_coefficient_mu            ?
_exptl_absorpt_correction_type           ?
_computing_structure_solution            ?
_refine_ls_number_parameters             ?
_refine_ls_number_reflns                 ?
_refine_ls_R_factor_gt                   ?
_refine_ls_wR_factor_gt                  ?

# End of data set 305994


