##############################################################################
#                                                                            #
# Cu-F             # CuF2 rt                                       #  541818 #
#                                                                            #
##############################################################################
#                                                                            #
#                           Pearson's Crystal Data                           #
#      Crystal Structure Database for Inorganic Compounds (on DVD)           #
#                              Release 2017/18                               #
#                  Editors: Pierre Villars and Karin Cenzual                 #
#                                                                            #
#   Copyright (c) ASM International & Material Phases Data System (MPDS),    #
# Switzerland & National Institute for Materials Science (NIMS), Japan, 2017 #
#                   All rights reserved. Version 2017.08                     #
#                                                                            #
#   This copy of Pearson's Crystal Data is licensed to:                      #
#   University of Alberta, Chemistry Department, 1-5 Installations License         #
#                                                                            #
##############################################################################

data_541818
_audit_creation_date                     2017-12-04
_audit_creation_method
;
Pearson's Crystal Data browser
;
#_database_code_PCD                      541818

# Entry summary

_chemical_formula_structural             'Cu F~2~'
_chemical_formula_sum                    'Cu F2'
_chemical_name_mineral                   ?
_chemical_compound_source                ?
_chemical_name_structure_type            CuF~2~,mP6,14
_chemical_formula_weight                 101.5

# Bibliographic data

_publ_section_title
'Magnetic and crystal structure of copper(II) fluoride'                       
_journal_coden_ASTM                      JPCSAW
_journal_name_full                       'J. Phys. Chem. Solids'
_journal_year                            1974
_journal_volume                          35
_journal_page_first                      1683
_journal_page_last                       1689
_journal_language                        English
loop_
 _publ_author_name
 _publ_author_address
'Fischer P.'
;
Swiss Federal Institute of Technology (ETH)
Laboratorium f\"ur Neutronenstreuung
W\"urenlingen
Switzerland
;
'H\"alg W.'
;
Swiss Federal Institute for Reactor Research
Delegation f\"ur Ausbildung und Hochschulforschung
W\"urenlingen
Switzerland
;
'Schwarzenbach D.'
;
Lausanne University
Institut de Cristallographie
Lausanne
Switzerland
;
'Gamsj\"ager H.'
;
Bern University
Institut f\"ur Anorganische, Analytische und Physikalische Chemie
Bern
Switzerland
;

# Standardized crystallographic data

_cell_length_a                           3.309
_cell_length_b                           4.569
_cell_length_c                           5.362
_cell_angle_alpha                        90
_cell_angle_beta                         121.11
_cell_angle_gamma                        90
_cell_volume                             69.41
_cell_formula_units_Z                    2
_space_group_IT_number                   14
_space_group_name_H-M_alt                'P 1 21/c 1'
loop_
 _space_group_symop_id
 _space_group_symop_operation_xyz
 1 'x, y, z'
 2 '-x, -y, -z'
 3 '-x, 1/2+y, 1/2-z'
 4 'x, 1/2-y, 1/2+z'
loop_
 _atom_type_symbol
 F
 Cu
loop_
 _atom_site_label
 _atom_site_type_symbol
 _atom_site_symmetry_multiplicity
 _atom_site_Wyckoff_symbol
 _atom_site_fract_x
 _atom_site_fract_y
 _atom_site_fract_z
 _atom_site_occupancy
 F F 4 e 0.2558 0.2968 0.2951 1
 Cu Cu 2 a 0 0 0 1


_exptl_crystal_colour                    blue
_exptl_crystal_density_meas              ?
_exptl_crystal_density_diffrn            4.86
_cell_measurement_temperature            293
_cell_measurement_radiation              neutrons
_cell_measurement_wavelength             2.347
_pd_proc_wavelength                      2.347
_cell_measurement_reflns_used            ?
_diffrn_ambient_temperature              293
_diffrn_measurement_device               'automatic diffractometer'
_diffrn_measurement_device_type
'Switzerland, Wuerenlingen, Paul Scherrer Institute, SAPHIR reactor'          
_diffrn_radiation_type                   neutrons
_diffrn_radiation_wavelength             2.347
_diffrn_reflns_number                    ?
_exptl_absorpt_coefficient_mu            ?
_exptl_absorpt_correction_type           yes
_computing_structure_solution            'starting values from the literature'
_refine_ls_number_parameters             ?
_refine_ls_number_reflns                 ?
_refine_ls_R_factor_gt                   ?
_refine_ls_wR_factor_gt                  ?
_pd_proc_ls_proof_R_factor               ?
_pd_proc_ls_proof_wR_factor              0.051
_refine_ls_R_I_factor                    0.017

# End of data set 541818


