##############################################################################
#                                                                            #
# Bi-Cu-Gd         # CuGd5Bi3                                      #  460683 #
#                                                                            #
##############################################################################
#                                                                            #
#                           Pearson's Crystal Data                           #
#      Crystal Structure Database for Inorganic Compounds (on DVD)           #
#                              Release 2017/18                               #
#                  Editors: Pierre Villars and Karin Cenzual                 #
#                                                                            #
#   Copyright (c) ASM International & Material Phases Data System (MPDS),    #
# Switzerland & National Institute for Materials Science (NIMS), Japan, 2017 #
#                   All rights reserved. Version 2017.08                     #
#                                                                            #
#   This copy of Pearson's Crystal Data is licensed to:                      #
#   University of Alberta, Chemistry Department, 1-5 Installations License         #
#                                                                            #
##############################################################################

data_460683
_audit_creation_date                     2017-12-01
_audit_creation_method
;
Pearson's Crystal Data browser
;
#_database_code_PCD                      460683

# Entry summary

_chemical_formula_structural             'Cu Gd~5~ Bi~3~'
_chemical_formula_sum                    'Bi3 Cu Gd5'
_chemical_name_mineral                   ?
_chemical_compound_source                ?
_chemical_name_structure_type            CuHf~5~Sn~3~,hP18,193
_chemical_formula_weight                 1476.7

# Bibliographic data

_publ_section_title
'Rare-earth bismuthides with D8~8~ and Hf~5~Sn~3~Cu-type structures'          
_journal_coden_ASTM                      JCOMAH
_journal_name_full                       'J. Less-Common Met.'
_journal_year                            1969
_journal_volume                          17
_journal_page_first                      291
_journal_page_last                       296
_journal_language                        English
loop_
 _publ_author_name
 _publ_author_address
'Hohnke D.'
;
Pennsylvania Philadelphia University
Department of Metallurgy and Materials
Philadelphia
U.S.A. Pennsylvania
;
'Parth\'e E.'
;
Pennsylvania Philadelphia University
Department of Metallurgy and Materials
Philadelphia
U.S.A. Pennsylvania
;

# Standardized crystallographic data

_cell_length_a                           9.265
_cell_length_b                           9.265
_cell_length_c                           6.424
_cell_angle_alpha                        90
_cell_angle_beta                         90
_cell_angle_gamma                        120
_cell_volume                             477.6
_cell_formula_units_Z                    2
_space_group_IT_number                   193
_space_group_name_H-M_alt                'P 63/m c m'
loop_
 _space_group_symop_id
 _space_group_symop_operation_xyz
 1 'x, y, z'
 2 '-x+y, -x, 1/2-z'
 3 '-x+y, -x, z'
 4 '-x+y, y, -z'
 5 '-x+y, y, 1/2+z'
 6 '-x, -x+y, 1/2-z'
 7 '-x, -x+y, z'
 8 '-x, -y, -z'
 9 '-x, -y, 1/2+z'
 10 '-y, -x, -z'
 11 '-y, -x, 1/2+z'
 12 '-y, x-y, 1/2-z'
 13 '-y, x-y, z'
 14 'x, x-y, -z'
 15 'x, x-y, 1/2+z'
 16 'x, y, 1/2-z'
 17 'x-y, -y, 1/2-z'
 18 'x-y, -y, z'
 19 'x-y, x, -z'
 20 'x-y, x, 1/2+z'
 21 'y, -x+y, -z'
 22 'y, -x+y, 1/2+z'
 23 'y, x, 1/2-z'
 24 'y, x, z'
loop_
 _atom_type_symbol
 Gd
 Bi
 Cu
loop_
 _atom_site_label
 _atom_site_type_symbol
 _atom_site_symmetry_multiplicity
 _atom_site_Wyckoff_symbol
 _atom_site_fract_x
 _atom_site_fract_y
 _atom_site_fract_z
 _atom_site_occupancy
 Gd1 Gd 6 g 0.266 0 0.25 1
 Bi Bi 6 g 0.606 0 0.25 1
 Gd2 Gd 4 d 0.333333 0.666667 0 1
 Cu Cu 2 b 0 0 0 1


_exptl_crystal_colour                    ?
_exptl_crystal_density_meas              ?
_exptl_crystal_density_diffrn            10.27
_cell_measurement_temperature            ?
_cell_measurement_radiation              'X-rays, Cr Ka'
_cell_measurement_wavelength             2.2909
_pd_proc_wavelength                      2.2909
_cell_measurement_reflns_used            ?
_diffrn_ambient_temperature              ?
_diffrn_measurement_device               film
_diffrn_measurement_device_type          ?
_diffrn_radiation_type                   'X-rays, Cr Ka'
_diffrn_radiation_wavelength             2.2909
_diffrn_reflns_number                    ?
_exptl_absorpt_coefficient_mu            ?
_exptl_absorpt_correction_type           yes
_computing_structure_solution            'starting values from the literature'
_refine_ls_number_parameters             ?
_refine_ls_number_reflns                 ?
_refine_ls_R_factor_gt                   0.126
_refine_ls_wR_factor_gt                  ?
_pd_proc_ls_proof_R_factor               ?
_pd_proc_ls_proof_wR_factor              ?
_refine_ls_R_I_factor                    ?

# Published diffraction lines

loop_
 _refln_index_h
 _refln_index_k
 _refln_index_l
 _refln_d_spacing
 _refln_intensity_meas
 0 0 2 1284 20
 2 1 0 1430 13
 1 0 2 1481 3
 2 1 1 1751 96
 3 0 0 1847 70
 1 1 2 1893 100
 2 0 2 2091 8
 3 1 0 2653 3
 2 2 1 2771 3
 3 1 1 2978 34
 2 2 2 3728 22
 3 2 1 4200 10
 2 1 3 4300 30
 4 0 2 4533 6
 0 0 4 5093 20
 3 1 3 5520 15
 4 1 2 5550 15
 1 1 4 5710 9
 3 3 1 5841 7
 4 2 1 6035 20
 5 1 0 6326 5
 5 0 2 6375 18
 2 1 4 6530 3
 5 1 1 6644 14
 3 2 3 6759 16
 3 0 4 6930 32
 4 2 2 6986 3
 4 3 1 7862 6
 5 2 0 7956 10
 5 2 1 8262 5
 3 3 3 8370 9
 4 2 3 8568 29
 6 0 2 8607 12
 6 1 0 8760 10
 4 3 2 8810 10
 6 1 1 9086 12
 5 1 3 9182 27
 2 1 5 9373 50

# End of data set 460683


