##############################################################################
#                                                                            #
# Cu-Hf-Pb         # CuHf5Pb3                                      #  540734 #
#                                                                            #
##############################################################################
#                                                                            #
#                           Pearson's Crystal Data                           #
#      Crystal Structure Database for Inorganic Compounds (on DVD)           #
#                              Release 2017/18                               #
#                  Editors: Pierre Villars and Karin Cenzual                 #
#                                                                            #
#   Copyright (c) ASM International & Material Phases Data System (MPDS),    #
# Switzerland & National Institute for Materials Science (NIMS), Japan, 2017 #
#                   All rights reserved. Version 2017.08                     #
#                                                                            #
#   This copy of Pearson's Crystal Data is licensed to:                      #
#   University of Alberta, Chemistry Department, 1-5 Installations License         #
#                                                                            #
##############################################################################

data_540734
_audit_creation_date                     2017-12-04
_audit_creation_method
;
Pearson's Crystal Data browser
;
#_database_code_PCD                      540734

# Entry summary

_chemical_formula_structural             'Cu Hf~5~ Pb~3~'
_chemical_formula_sum                    'Cu Hf5 Pb3'
_chemical_name_mineral                   ?
_chemical_compound_source                ?
_chemical_name_structure_type            CuHf~5~Sn~3~,hP18,193
_chemical_formula_weight                 1577.6

# Bibliographic data

_publ_section_title
'Phasen mit oktaedrischen Bauelementen des \"Ubergangsmetalls'                
_journal_coden_ASTM                      MOCMB7
_journal_name_full                       'Monatsh. Chem.'
_journal_year                            1965
_journal_volume                          96
_journal_page_first                      232
_journal_page_last                       241
_journal_language                        German
loop_
 _publ_author_name
 _publ_author_address
'Rieger W.'
;
Vienna University
Institut f\"ur Physikalische Chemie
Vienna
Austria
;
'Nowotny H.'
;
Vienna University
Institut f\"ur Physikalische Chemie
Vienna
Austria
;
'Benesovsky F.'
;
Metallwerke Plansee A.G.
Reutte
Austria
;

# Standardized crystallographic data

_cell_length_a                           8.615
_cell_length_b                           8.615
_cell_length_c                           5.855
_cell_angle_alpha                        90
_cell_angle_beta                         90
_cell_angle_gamma                        120
_cell_volume                             376.3
_cell_formula_units_Z                    2
_space_group_IT_number                   193
_space_group_name_H-M_alt                'P 63/m c m'
loop_
 _space_group_symop_id
 _space_group_symop_operation_xyz
 1 'x, y, z'
 2 '-x+y, -x, 1/2-z'
 3 '-x+y, -x, z'
 4 '-x+y, y, -z'
 5 '-x+y, y, 1/2+z'
 6 '-x, -x+y, 1/2-z'
 7 '-x, -x+y, z'
 8 '-x, -y, -z'
 9 '-x, -y, 1/2+z'
 10 '-y, -x, -z'
 11 '-y, -x, 1/2+z'
 12 '-y, x-y, 1/2-z'
 13 '-y, x-y, z'
 14 'x, x-y, -z'
 15 'x, x-y, 1/2+z'
 16 'x, y, 1/2-z'
 17 'x-y, -y, 1/2-z'
 18 'x-y, -y, z'
 19 'x-y, x, -z'
 20 'x-y, x, 1/2+z'
 21 'y, -x+y, -z'
 22 'y, -x+y, 1/2+z'
 23 'y, x, 1/2-z'
 24 'y, x, z'

# Atomic positions taken from type-defining entry

loop_
 _atom_type_symbol
 Hf
 Pb
 Cu
loop_
 _atom_site_label
 _atom_site_type_symbol
 _atom_site_symmetry_multiplicity
 _atom_site_Wyckoff_symbol
 _atom_site_fract_x
 _atom_site_fract_y
 _atom_site_fract_z
 _atom_site_occupancy
 Hf1 Hf 6 g 0.27 0 0.25 1
 Pb1 Pb 6 g 0.62 0 0.25 1
 Hf2 Hf 4 d 0.333333 0.666667 0 1
 Cu1 Cu 2 b 0 0 0 1


_exptl_crystal_colour                    ?
_exptl_crystal_density_meas              ?
_exptl_crystal_density_diffrn            13.92
_cell_measurement_temperature            ?
_cell_measurement_radiation              'X-rays, Cr Ka'
_cell_measurement_reflns_used            ?
_diffrn_ambient_temperature              ?
_diffrn_measurement_device               film
_diffrn_measurement_device_type          ?
_diffrn_radiation_type                   ?
_diffrn_reflns_number                    ?
_exptl_absorpt_coefficient_mu            ?
_exptl_absorpt_correction_type           ?
_computing_structure_solution            ?
_refine_ls_number_parameters             ?
_refine_ls_number_reflns                 ?
_refine_ls_R_factor_gt                   ?
_refine_ls_wR_factor_gt                  ?

# Published diffraction lines

loop_
 _refln_index_h
 _refln_index_k
 _refln_index_l
 _refln_d_spacing
 _refln_intensity_meas
 0 0 2 1539 3
 2 1 0 1667 3
 1 0 2 1786 1
 2 1 1 2047 7
 3 0 0 2136 7
 1 1 2 2250 8
 2 0 2 2485 1
 3 1 0 3062 0.5
 2 2 1 3224 2
 3 1 1 3453 6
 3 0 2 3655 3
 4 0 0 3779 0.5
 2 2 2 4373 6
 3 2 1 4878 5
 4 1 0 4965 2
 2 1 3 5096 6
 4 0 2 5314 3
 5 0 0 5920 5
 3 2 2 6022 3
 0 0 4 6125 5
 2 2 3 6258 1
 1 0 4 6378 3
 4 1 2 6495 7
 4 2 0 6611 4
 3 3 1 6743 3
 4 2 1 6970 7
 5 1 0 7301 3
 5 0 2 7424 6
 5 1 1 7694 6
 2 1 4 7768 3
 3 3 2 7882 5
 3 2 3 7939 5
 4 2 2 8133 4
 3 0 4 8241 8
 6 0 0 8473 3
 5 1 2 8835 3
 4 3 1 9106 4
 3 1 4 9193 5
 5 2 1 9568 6

# End of data set 540734


