##############################################################################
#                                                                            #
# Cu-Hg-O-Se       # CuHg[SeO3]2                                   # 1530338 #
#                                                                            #
##############################################################################
#                                                                            #
#                           Pearson's Crystal Data                           #
#      Crystal Structure Database for Inorganic Compounds (on DVD)           #
#                              Release 2017/18                               #
#                  Editors: Pierre Villars and Karin Cenzual                 #
#                                                                            #
#   Copyright (c) ASM International & Material Phases Data System (MPDS),    #
# Switzerland & National Institute for Materials Science (NIMS), Japan, 2017 #
#                   All rights reserved. Version 2017.08                     #
#                                                                            #
#   This copy of Pearson's Crystal Data is licensed to:                      #
#   University of Alberta, Chemistry Department, 1-5 Installations License         #
#                                                                            #
##############################################################################

data_1530338
_audit_creation_date                     2017-12-05
_audit_creation_method
;
Pearson's Crystal Data browser
;
#_database_code_PCD                      1530338

# Entry summary

_chemical_formula_structural             'Cu Hg [Se O~3~]~2~'
_chemical_formula_sum                    'Cu Hg O6 Se2'
_chemical_name_mineral                   ?
_chemical_compound_source                ?
_chemical_name_structure_type            CuCd[SeO~3~]~2~,mP40,14
_chemical_formula_weight                 518.1

# Bibliographic data

_publ_section_title
;
Structural and magnetic studies on three new mixed metal copper(II) selenites and tellurites
;
_journal_coden_ASTM                      DTARAF
_journal_name_full                       'Dalton Trans.'
_journal_year                            2015
_journal_volume                          44
_journal_page_first                      11420
_journal_page_last                       11428
_journal_language                        English
loop_
 _publ_author_name
 _publ_author_address
'Cao X.L.'
;
Chinese Academy of Sciences
Fujian Institute of Research on the Structure of Matter
Fuzhou / Fujian
China
;
'Kong F.'
;
Chinese Academy of Sciences
Fujian Institute of Research on the Structure of Matter
Fuzhou / Fujian
China
;
'He Z.Z.'
;
Chinese Academy of Sciences
Fujian Institute of Research on the Structure of Matter
Fuzhou / Fujian
China
;
'Mao J.G.'
;
Chinese Academy of Sciences
Fujian Institute of Research on the Structure of Matter
Fuzhou / Fujian
China
;

# Standardized crystallographic data

_cell_length_a                           7.5825
_cell_length_b                           10.3667
_cell_length_c                           7.4127
_cell_angle_alpha                        90
_cell_angle_beta                         95.011
_cell_angle_gamma                        90
_cell_volume                             580.5
_cell_formula_units_Z                    4
_space_group_IT_number                   14
_space_group_name_H-M_alt                'P 1 21/c 1'
loop_
 _space_group_symop_id
 _space_group_symop_operation_xyz
 1 'x, y, z'
 2 '-x, -y, -z'
 3 '-x, 1/2+y, 1/2-z'
 4 'x, 1/2-y, 1/2+z'
loop_
 _atom_type_symbol
 O
 Se
 Hg
 Cu
loop_
 _atom_site_label
 _atom_site_type_symbol
 _atom_site_symmetry_multiplicity
 _atom_site_Wyckoff_symbol
 _atom_site_fract_x
 _atom_site_fract_y
 _atom_site_fract_z
 _atom_site_occupancy
 O2 O 4 e 0.0029 0.6423 0.0866 1
 Se1 Se 4 e 0.04854 0.60863 0.30948 1
 O1 O 4 e 0.1315 0.0153 0.1589 1
 O3 O 4 e 0.207 0.4922 0.2923 1
 Hg1 Hg 4 e 0.26022 0.055 0.49092 1
 Cu1 Cu 4 e 0.31685 0.08202 0.01939 1
 O5 O 4 e 0.3645 0.2121 0.2131 1
 O4 O 4 e 0.5391 0.3837 0.4184 1
 O6 O 4 e 0.5493 0.3848 0.0646 1
 Se2 Se 4 e 0.56817 0.28146 0.2444 1


_exptl_crystal_colour                    blue
_exptl_crystal_density_meas              ?
_exptl_crystal_density_diffrn            5.93
_cell_measurement_temperature            293(2)
_cell_measurement_radiation              'X-rays, Mo Ka'
_cell_measurement_wavelength             0.71073
_cell_measurement_reflns_used            1639
_diffrn_ambient_temperature              293
_diffrn_measurement_device               'automatic diffractometer'
_diffrn_measurement_device_type          'Rigaku Mercury'
_diffrn_radiation_type                   'X-rays, Mo Ka'
_diffrn_radiation_wavelength             0.71073
_diffrn_reflns_number                    4470
_diffrn_reflns_theta_min                 3.34
_diffrn_reflns_theta_max                 27.48
_exptl_absorpt_coefficient_mu            42.584
_exptl_absorpt_correction_type           semi-empirical
_computing_structure_solution            'direct methods'
_refine_ls_number_parameters             92
_refine_ls_number_reflns                 1236
_refine_ls_R_factor_gt                   0.0229
_refine_ls_wR_factor_gt                  0.0486

# End of data set 1530338


