##############################################################################
#                                                                            #
# Cu-In-Mo-O       # CuInMo2O8                                     #  544570 #
#                                                                            #
##############################################################################
#                                                                            #
#                           Pearson's Crystal Data                           #
#      Crystal Structure Database for Inorganic Compounds (on DVD)           #
#                              Release 2017/18                               #
#                  Editors: Pierre Villars and Karin Cenzual                 #
#                                                                            #
#   Copyright (c) ASM International & Material Phases Data System (MPDS),    #
# Switzerland & National Institute for Materials Science (NIMS), Japan, 2017 #
#                   All rights reserved. Version 2017.08                     #
#                                                                            #
#   This copy of Pearson's Crystal Data is licensed to:                      #
#   University of Alberta, Chemistry Department, 1-5 Installations License         #
#                                                                            #
##############################################################################

data_544570
_audit_creation_date                     2017-12-04
_audit_creation_method
;
Pearson's Crystal Data browser
;
#_database_code_PCD                      544570

# Entry summary

_chemical_formula_structural             'Cu Mo~2~ In O~8~'
_chemical_formula_sum                    'Cu In Mo2 O8'
_chemical_name_mineral                   ?
_chemical_compound_source                ?
_chemical_name_structure_type            LiW~2~FeO~8~,mS48,15
_chemical_formula_weight                 498.2

# Bibliographic data

_publ_section_title
;
The synthesis of double molybdates of copper(I) and tervalent metals CuM(MoO~4~)~2~
;
_journal_coden_ASTM                      RJICAQ
_journal_name_full                       'Russ. J. Inorg. Chem.'
_journal_year                            1987
_journal_volume                          32
_journal_page_first                      360
_journal_page_last                       362
_journal_language                        English
loop_
 _publ_author_name
 _publ_author_address
'Klevtsov P.V.'
;
Russian Academy of Sciences
Nikolaev A.V. Institute of Inorganic Chemistry
Novosibirsk
Russia
;
'Perepelitsa A.P.'
;
Kiev Taras Shevchenko National University
Kiev Technological Institute for the Food Industry
Kiev
Ukraine
;
'Sinkevich A.V.'
;
Kiev Taras Shevchenko National University
Kiev Technological Institute for the Food Industry
Kiev
Ukraine
;
'Ishchenko V.N.'
;
Russian Academy of Sciences
Institute of Inorganic Chemistry
Moscow
Russia
;
'Fomenko V.V.'
;
Russian Academy of Sciences
Institute of Inorganic Chemistry
Moscow
Russia
;
'Nagornyi P.G.'
;
Russian Academy of Sciences
Institute of Inorganic Chemistry
Moscow
Russia
;

# Standardized crystallographic data

_cell_length_a                           9.54
_cell_length_b                           11.52
_cell_length_c                           5.014
_cell_angle_alpha                        90
_cell_angle_beta                         91.56
_cell_angle_gamma                        90
_cell_volume                             550.8
_cell_formula_units_Z                    4
_space_group_IT_number                   15
_space_group_name_H-M_alt                'C 1 2/c 1'
loop_
 _space_group_symop_id
 _space_group_symop_operation_xyz
 1 'x, y, z'
 2 '-x, -y, -z'
 3 '-x, y, 1/2-z'
 4 'x, -y, 1/2+z'
 5 '1/2+x, 1/2+y, z'
 6 '1/2-x, 1/2-y, -z'
 7 '1/2-x, 1/2+y, 1/2-z'
 8 '1/2+x, 1/2-y, 1/2+z'

# Atomic positions taken from type-defining entry

loop_
 _atom_type_symbol
 O
 Mo
 In
 Cu
loop_
 _atom_site_label
 _atom_site_type_symbol
 _atom_site_symmetry_multiplicity
 _atom_site_Wyckoff_symbol
 _atom_site_fract_x
 _atom_site_fract_y
 _atom_site_fract_z
 _atom_site_occupancy
 O1 O 8 f 0.108 0.178 0.58 1
 O2 O 8 f 0.113 0.062 0.06 1
 O3 O 8 f 0.122 0.303 0.111 1
 Mo1 Mo 8 f 0.246 0.4086 0.247 1
 O4 O 8 f 0.356 0.052 0.429 1
 In1 In 4 e 0 0.164 0.25 1
 Cu1 Cu 4 e 0 0.673 0.25 1


_exptl_crystal_colour                    black
_exptl_crystal_density_meas              ?
_exptl_crystal_density_diffrn            6.01
_cell_measurement_temperature            ?
_cell_measurement_radiation              'X-rays, Cu Ka'
_cell_measurement_reflns_used            ?
_diffrn_ambient_temperature              ?
_diffrn_measurement_device               'automatic diffractometer'
_diffrn_measurement_device_type          ?
_diffrn_radiation_type                   ?
_diffrn_reflns_number                    ?
_exptl_absorpt_coefficient_mu            ?
_exptl_absorpt_correction_type           ?
_computing_structure_solution            ?
_refine_ls_number_parameters             ?
_refine_ls_number_reflns                 ?
_refine_ls_R_factor_gt                   ?
_refine_ls_wR_factor_gt                  ?

# Published diffraction lines

loop_
 _refln_index_h
 _refln_index_k
 _refln_index_l
 _refln_d_spacing
 _refln_intensity_meas
 0 2 0 57.6 1
 2 2 0 56.76 45
 1 1 -1 41.8 2
 1 1 1 41 2
 0 2 1 37.87 3
 3 1 0 30.62 7
 2 2 1 29.93 95
 2 2 1 29.34 100
 0 4 0 28.81 30
 0 0 2 25.06 35
 0 4 1 24.98 40
 3 3 0 24.47 3
 4 0 0 23.84 20
 2 0 -2 22.44 5
 1 5 0 22.4 5
 2 4 -1 22.24 7
 4 2 0 22.01 8
 2 0 2 21.95 8
 3 3 1 21.82 4
 2 2 -2 20.89 10
 2 2 2 20.51 10
 3 1 -2 19.69 3
 0 4 2 18.91 20
 3 5 0 18.65 4
 4 4 0 18.36 20
 2 6 0 17.81 35
 4 0 -2 17.51 25
 3 5 1 17.36 25
 4 4 1 17.12 20
 4 0 2 17.05 25
 2 6 -1 16.83 5
 2 6 1 16.72 3
 1 1 -3 16.35 3
 6 2 0 15.33 20
 5 1 -2 15.25 4
 2 2 -3 15.09 15
 4 4 -2 14.966 10
 5 1 2 14.833 2
 6 2 -1 14.758 15
 4 4 2 14.668 10
 3 7 0 14.613 8
 2 6 -2 14.592 20
 6 2 1 14.548 25
 3 1 3 14.514 15
 0 4 3 14.45 30
 0 8 1 13.835 15

# End of data set 544570


