##############################################################################
#                                                                            #
# Cu-O             # CuO rt                                        #  555447 #
#                                                                            #
##############################################################################
#                                                                            #
#                           Pearson's Crystal Data                           #
#      Crystal Structure Database for Inorganic Compounds (on DVD)           #
#                              Release 2017/18                               #
#                  Editors: Pierre Villars and Karin Cenzual                 #
#                                                                            #
#   Copyright (c) ASM International & Material Phases Data System (MPDS),    #
# Switzerland & National Institute for Materials Science (NIMS), Japan, 2017 #
#                   All rights reserved. Version 2017.08                     #
#                                                                            #
#   This copy of Pearson's Crystal Data is licensed to:                      #
#   University of Alberta, Chemistry Department, 1-5 Installations License         #
#                                                                            #
##############################################################################

data_555447
_audit_creation_date                     2017-12-04
_audit_creation_method
;
Pearson's Crystal Data browser
;
#_database_code_PCD                      555447

# Entry summary

_chemical_formula_structural             'Cu O'
_chemical_formula_sum                    'Cu O'
_chemical_name_mineral                   tenorite
_chemical_compound_source                ?
_chemical_name_structure_type            CuO,mS8,15
_chemical_formula_weight                 79.5

# Bibliographic data

_publ_section_title
;
Temperature transition from 3D to quasi-1D antiferromagnetism in CuO single crystals
;
_journal_coden_ASTM                      JMMMDC
_journal_name_full                       'J. Magn. Magn. Mater.'
_journal_year                            1991
_journal_volume                          95
_journal_page_first                      168
_journal_page_last                       174
_journal_language                        English
loop_
 _publ_author_name
 _publ_author_address
'Arbuzova T.I.'
;
Russian Academy of Sciences
Institute of Metal Physics
Ekaterinburg
Russia
;
'Samokhvalov A.A.'
;
Russian Academy of Sciences
Institute of Metal Physics
Ekaterinburg
Russia
;
'Smolyak I.B.'
;
Russian Academy of Sciences
Institute of Metal Physics
Ekaterinburg
Russia
;
'Karpenko B.V.'
;
Russian Academy of Sciences
Institute of Metal Physics
Ekaterinburg
Russia
;
'Chebotaev N.M.'
;
Russian Academy of Sciences
Institute of Metal Physics
Ekaterinburg
Russia
;
'Naumov S.V.'
;
Russian Academy of Sciences
Institute of Metal Physics
Ekaterinburg
Russia
;

# Standardized crystallographic data

_cell_length_a                           4.706
_cell_length_b                           3.424
_cell_length_c                           5.118
_cell_angle_alpha                        90
_cell_angle_beta                         99.3
_cell_angle_gamma                        90
_cell_volume                             81.4
_cell_formula_units_Z                    4
_space_group_IT_number                   15
_space_group_name_H-M_alt                'C 1 2/c 1'
loop_
 _space_group_symop_id
 _space_group_symop_operation_xyz
 1 'x, y, z'
 2 '-x, -y, -z'
 3 '-x, y, 1/2-z'
 4 'x, -y, 1/2+z'
 5 '1/2+x, 1/2+y, z'
 6 '1/2-x, 1/2-y, -z'
 7 '1/2-x, 1/2+y, 1/2-z'
 8 '1/2+x, 1/2-y, 1/2+z'

# Atomic positions taken from type-defining entry

loop_
 _atom_type_symbol
 O
 Cu
loop_
 _atom_site_label
 _atom_site_type_symbol
 _atom_site_symmetry_multiplicity
 _atom_site_Wyckoff_symbol
 _atom_site_fract_x
 _atom_site_fract_y
 _atom_site_fract_z
 _atom_site_occupancy
 O1 O 4 e 0 0.0816 0.25 1
 Cu1 Cu 4 c 0.25 0.25 0 1


_exptl_crystal_colour                    ?
_exptl_crystal_density_meas              ?
_exptl_crystal_density_diffrn            6.49
_cell_measurement_temperature            298
_cell_measurement_radiation              'X-rays, Cr Ka'
_cell_measurement_reflns_used            ?
_diffrn_ambient_temperature              ?
_diffrn_measurement_device               'automatic diffractometer'
_diffrn_measurement_device_type          ?
_diffrn_radiation_type                   ?
_diffrn_reflns_number                    ?
_exptl_absorpt_coefficient_mu            ?
_exptl_absorpt_correction_type           ?
_computing_structure_solution            ?
_refine_ls_number_parameters             ?
_refine_ls_number_reflns                 ?
_refine_ls_R_factor_gt                   ?
_refine_ls_wR_factor_gt                  ?

# End of data set 555447


