##############################################################################
#                                                                            #
# Cu-O             # CuO rt                                        #  553739 #
#                                                                            #
##############################################################################
#                                                                            #
#                           Pearson's Crystal Data                           #
#      Crystal Structure Database for Inorganic Compounds (on DVD)           #
#                              Release 2017/18                               #
#                  Editors: Pierre Villars and Karin Cenzual                 #
#                                                                            #
#   Copyright (c) ASM International & Material Phases Data System (MPDS),    #
# Switzerland & National Institute for Materials Science (NIMS), Japan, 2017 #
#                   All rights reserved. Version 2017.08                     #
#                                                                            #
#   This copy of Pearson's Crystal Data is licensed to:                      #
#   University of Alberta, Chemistry Department, 1-5 Installations License         #
#                                                                            #
##############################################################################

data_553739
_audit_creation_date                     2017-12-04
_audit_creation_method
;
Pearson's Crystal Data browser
;
#_database_code_PCD                      553739

# Entry summary

_chemical_formula_structural             'Cu O'
_chemical_formula_sum                    'Cu O'
_chemical_name_mineral                   tenorite
_chemical_compound_source                ?
_chemical_name_structure_type            CuO,mS8,15
_chemical_formula_weight                 79.5

# Bibliographic data

_publ_section_title
;
Synthesis and X-ray powder diffraction analysis of the high-T~c~ superconductor HgBa~2~Ca~2~Cu~3~O~8+d~
;
_journal_coden_ASTM                      SSCOA4
_journal_name_full                       'Solid State Commun.'
_journal_year                            1994
_journal_volume                          92
_journal_page_first                      595
_journal_page_last                       599
_journal_language                        English
loop_
 _publ_author_name
 _publ_author_address
'Shao H.M.'
;
Nanjing Jiangsu University
Department of Physics
Nanjing / Jiangsu
China
;
'Li Z.J.'
;
Nanjing Jiangsu University
Institute of Chemical Technology
Nanjing / Jiangsu
China
;
'Zhang G.N.'
;
Nanjing Jiangsu University
Institute of Chemical Technology
Nanjing / Jiangsu
China
;
'Che G.C.'
;
Chinese Academy of Sciences
State Key Laboratory for Superconductivity
Beijing
China
;
'Zhao Z.X.'
;
Chinese Academy of Sciences
State Key Laboratory for Superconductivity
Beijing
China
;
'Zhou K.'
;
Nanjing Jiangsu University
Department of Physics
Nanjing / Jiangsu
China
;
'Rui Y.'
;
Nanjing Jiangsu University
Department of Physics
Nanjing / Jiangsu
China
;
'Shen J.C.'
;
Nanjing Jiangsu University
Department of Physics
Nanjing / Jiangsu
China
;
'Xu X.N.'
;
Nanjing Jiangsu University
Department of Physics
Nanjing / Jiangsu
China
;
'Ji H.L.'
;
Nanjing Jiangsu University
Department of Physics
Nanjing / Jiangsu
China
;
'Yao X.X.'
;
Nanjing Jiangsu University
Department of Physics
Nanjing / Jiangsu
China
;
'Shen L.J.'
;
Nanjing Jiangsu University
Institute of Chemical Technology
Nanjing / Jiangsu
China
;
'Wu Z.'
;
Nanjing Jiangsu University
Institute of Chemical Technology
Nanjing / Jiangsu
China
;

# Standardized crystallographic data

_cell_length_a                           4.7
_cell_length_b                           3.4
_cell_length_c                           5.1
_cell_angle_alpha                        90
_cell_angle_beta                         99.54
_cell_angle_gamma                        90
_cell_volume                             80.4
_cell_formula_units_Z                    4
_space_group_IT_number                   15
_space_group_name_H-M_alt                'C 1 2/c 1'
loop_
 _space_group_symop_id
 _space_group_symop_operation_xyz
 1 'x, y, z'
 2 '-x, -y, -z'
 3 '-x, y, 1/2-z'
 4 'x, -y, 1/2+z'
 5 '1/2+x, 1/2+y, z'
 6 '1/2-x, 1/2-y, -z'
 7 '1/2-x, 1/2+y, 1/2-z'
 8 '1/2+x, 1/2-y, 1/2+z'

# Atomic positions taken from type-defining entry

loop_
 _atom_type_symbol
 O
 Cu
loop_
 _atom_site_label
 _atom_site_type_symbol
 _atom_site_symmetry_multiplicity
 _atom_site_Wyckoff_symbol
 _atom_site_fract_x
 _atom_site_fract_y
 _atom_site_fract_z
 _atom_site_occupancy
 O1 O 4 e 0 0.0816 0.25 1
 Cu1 Cu 4 c 0.25 0.25 0 1


_exptl_crystal_colour                    ?
_exptl_crystal_density_meas              ?
_exptl_crystal_density_diffrn            6.57
_cell_measurement_temperature            ?
_cell_measurement_radiation              'X-rays, Cu Ka'
_cell_measurement_wavelength             1.5405
_pd_proc_wavelength                      1.5405
_cell_measurement_reflns_used            ?
_diffrn_ambient_temperature              ?
_diffrn_measurement_device               diffractometer
_diffrn_measurement_device_type          ?
_diffrn_radiation_type                   ?
_diffrn_reflns_number                    ?
_exptl_absorpt_coefficient_mu            ?
_exptl_absorpt_correction_type           ?
_computing_structure_solution            ?
_refine_ls_number_parameters             ?
_refine_ls_number_reflns                 ?
_refine_ls_R_factor_gt                   ?
_refine_ls_wR_factor_gt                  ?

# End of data set 553739


