##############################################################################
#                                                                            #
# Cu-P             # CuP2                                          #  454843 #
#                                                                            #
##############################################################################
#                                                                            #
#                           Pearson's Crystal Data                           #
#      Crystal Structure Database for Inorganic Compounds (on DVD)           #
#                              Release 2017/18                               #
#                  Editors: Pierre Villars and Karin Cenzual                 #
#                                                                            #
#   Copyright (c) ASM International & Material Phases Data System (MPDS),    #
# Switzerland & National Institute for Materials Science (NIMS), Japan, 2017 #
#                   All rights reserved. Version 2017.08                     #
#                                                                            #
#   This copy of Pearson's Crystal Data is licensed to:                      #
#   University of Alberta, Chemistry Department, 1-5 Installations License         #
#                                                                            #
##############################################################################

data_454843
_audit_creation_date                     2017-12-01
_audit_creation_method
;
Pearson's Crystal Data browser
;
#_database_code_PCD                      454843

# Entry summary

_chemical_formula_structural             'Cu P~2~'
_chemical_formula_sum                    'Cu P2'
_chemical_name_mineral                   ?
_chemical_compound_source                ?
_chemical_name_structure_type            CuP~2~,mP12,14
_chemical_formula_weight                 125.5

# Bibliographic data

_publ_section_title
'Growth and characterization of CuP~2~ single crystals'                       
_journal_coden_ASTM                      JCRGAE
_journal_name_full                       'J. Cryst. Growth'
_journal_year                            1990
_journal_volume                          106
_journal_page_first                      635
_journal_page_last                       642
_journal_language                        English
loop_
 _publ_author_name
 _publ_author_address
'Kloc C.L.'
;
Constance (Konstanz) University
Fakult\"at f\"ur Physik
Constance (Konstanz)
Germany
;
'Lux Steiner M.C.'
;
Constance (Konstanz) University
Fakult\"at f\"ur Physik
Constance (Konstanz)
Germany
;
'Keil M.'
;
Constance (Konstanz) University
Fakult\"at f\"ur Physik
Constance (Konstanz)
Germany
;
'Baumann J.R.'
;
Constance (Konstanz) University
Fakult\"at f\"ur Physik
Constance (Konstanz)
Germany
;
'D\"oll G.'
;
Constance (Konstanz) University
Fakult\"at f\"ur Physik
Constance (Konstanz)
Germany
;
'Bucher E.'
;
Constance (Konstanz) University
Fakult\"at f\"ur Physik
Constance (Konstanz)
Germany
;

# Standardized crystallographic data

_cell_length_a                           5.801
_cell_length_b                           4.808
_cell_length_c                           7.521
_cell_angle_alpha                        90
_cell_angle_beta                         112.69
_cell_angle_gamma                        90
_cell_volume                             193.53
_cell_formula_units_Z                    4
_space_group_IT_number                   14
_space_group_name_H-M_alt                'P 1 21/c 1'
loop_
 _space_group_symop_id
 _space_group_symop_operation_xyz
 1 'x, y, z'
 2 '-x, -y, -z'
 3 '-x, 1/2+y, 1/2-z'
 4 'x, 1/2-y, 1/2+z'

# Atomic positions taken from type-defining entry

loop_
 _atom_type_symbol
 P
 Cu
loop_
 _atom_site_label
 _atom_site_type_symbol
 _atom_site_symmetry_multiplicity
 _atom_site_Wyckoff_symbol
 _atom_site_fract_x
 _atom_site_fract_y
 _atom_site_fract_z
 _atom_site_occupancy
 P1 P 4 e 0.09352 0.1139 0.41975 1
 Cu1 Cu 4 e 0.35656 0.03929 0.08398 1
 P2 P 4 e 0.74958 0.2789 0.19970 1


_exptl_crystal_colour                    ?
_exptl_crystal_density_meas              ?
_exptl_crystal_density_diffrn            4.31
_cell_measurement_temperature            300
_cell_measurement_radiation              'X-rays, Cu Ka'
_cell_measurement_reflns_used            ?
_diffrn_ambient_temperature              ?
_diffrn_measurement_device               'automatic diffractometer'
_diffrn_measurement_device_type          ?
_diffrn_radiation_type                   ?
_diffrn_reflns_number                    ?
_exptl_absorpt_coefficient_mu            ?
_exptl_absorpt_correction_type           ?
_computing_structure_solution            ?
_refine_ls_number_parameters             ?
_refine_ls_number_reflns                 ?
_refine_ls_R_factor_gt                   ?
_refine_ls_wR_factor_gt                  ?

# Published diffraction lines

loop_
 _refln_index_h
 _refln_index_k
 _refln_index_l
 _refln_d_spacing
 _refln_intensity_meas
 -1 0 1 53.396 23.9
 0 1 1 39.465 2.2
 -1 1 1 35.723 1.6
 0 0 2 34.7 1.2
 -1 1 2 28.875 32.1
 -2 0 2 26.728 100.0
 -2 1 1 24.812 6.9
 -2 1 2 23.377 2.1
 -1 1 3 22.196 2.9
 0 2 2 19.732 2.0
 -2 2 1 18.49 3.5
 -2 0 4 18.042 17.0
 -3 0 3 17.82 78.4
 1 1 3 17.471 1.8
 -1 1 4 17.461 1.8
 0 0 4 17.339 1.8
 -3 1 3 16.715 26.7
 0 3 1 15.617 0.7
 -3 1 4 15.058 2.8
 -4 0 2 14.498 4.2
 -3 2 3 14.32 2.2
 4 0 0 13.371 18.5
 4 1 1 11.9 4.3
 4 2 0 11.686 6.3
 0 0 6 11.558 5.3
 4 0 2 11.121 3.0
 5 0 0 10.701 1.4
 5 1 1 9.798 3.0
 -6 0 2 9.574 3.1

# End of data set 454843


