##############################################################################
#                                                                            #
# Cu-Ge-Pr-Se      # CuPr3GeSe7                                    # 1522068 #
#                                                                            #
##############################################################################
#                                                                            #
#                           Pearson's Crystal Data                           #
#      Crystal Structure Database for Inorganic Compounds (on DVD)           #
#                              Release 2017/18                               #
#                  Editors: Pierre Villars and Karin Cenzual                 #
#                                                                            #
#   Copyright (c) ASM International & Material Phases Data System (MPDS),    #
# Switzerland & National Institute for Materials Science (NIMS), Japan, 2017 #
#                   All rights reserved. Version 2017.08                     #
#                                                                            #
#   This copy of Pearson's Crystal Data is licensed to:                      #
#   University of Alberta, Chemistry Department, 1-5 Installations License         #
#                                                                            #
##############################################################################

data_1522068
_audit_creation_date                     2017-12-05
_audit_creation_method
;
Pearson's Crystal Data browser
;
#_database_code_PCD                      1522068

# Entry summary

_chemical_formula_structural             'Cu Pr~3~ Ge Se~7~'
_chemical_formula_sum                    'Cu Ge Pr3 Se7'
_chemical_name_mineral                   ?
_chemical_compound_source                ?
_chemical_name_structure_type            CuLa~3~SiS~7~,hP24,173
_chemical_formula_weight                 1111.6

# Bibliographic data

_publ_section_title
;
Crystal structures of the R~3~CuGeSe~7~ (R= Ce, Pr, Nd, Sm, Gd, Tb and Ho) compounds
;
_journal_coden_ASTM                      JALCEU
_journal_name_full                       'J. Alloys Compd.'
_journal_year                            2006
_journal_volume                          422
_journal_page_first                      203
_journal_page_last                       207
_journal_language                        English
loop_
 _publ_author_name
 _publ_author_address
'Gulay L.D.'
;
Lutsk Lesya Ukrainka Volyn State University
Department of General and Inorganic Chemistry
Lutsk
Ukraine
;
'Lychmanyuk O.S.'
;
Lutsk Lesya Ukrainka Volyn State University
Department of General and Inorganic Chemistry
Lutsk
Ukraine
;
'Olekseyuk I.D.'
;
Lutsk Lesya Ukrainka Volyn State University
Department of General and Inorganic Chemistry
Lutsk
Ukraine
;
'Pietraszko A.'
;
Polish Academy of Sciences
Trzebiatowski W. Institute of Low Temperature and Structure Research
Wroclaw
Poland
;

# Standardized crystallographic data

_cell_length_a                           10.559
_cell_length_b                           10.559
_cell_length_c                           6.084
_cell_angle_alpha                        90
_cell_angle_beta                         90
_cell_angle_gamma                        120
_cell_volume                             587.4
_cell_formula_units_Z                    2
_space_group_IT_number                   173
_space_group_name_H-M_alt                'P 63'
loop_
 _space_group_symop_id
 _space_group_symop_operation_xyz
 1 'x, y, z'
 2 '-x+y, -x, z'
 3 '-x, -y, 1/2+z'
 4 '-y, x-y, z'
 5 'x-y, x, 1/2+z'
 6 'y, -x+y, 1/2+z'
loop_
 _atom_type_symbol
 Pr
 Se
 Ge
 Cu
loop_
 _atom_site_label
 _atom_site_type_symbol
 _atom_site_symmetry_multiplicity
 _atom_site_Wyckoff_symbol
 _atom_site_fract_x
 _atom_site_fract_y
 _atom_site_fract_z
 _atom_site_occupancy
 Pr Pr 6 c 0.1304 0.35606 0.0321 1
 Se2 Se 6 c 0.2569 0.1624 0.0149 1
 Se3 Se 6 c 0.5196 0.0987 0.272 1
 Se1 Se 2 b 0.333333 0.666667 0.2364 1
 Ge Ge 2 b 0.333333 0.666667 0.6172 1
 Cu Cu 2 a 0 0 0.0 1


_exptl_crystal_colour                    ?
_exptl_crystal_density_meas              ?
_exptl_crystal_density_diffrn            6.28
_cell_measurement_temperature            ?
_cell_measurement_radiation              'X-rays, Mo Ka'
_cell_measurement_wavelength             0.71073
_cell_measurement_reflns_used            ?
_diffrn_ambient_temperature              ?
_diffrn_measurement_device               'automatic diffractometer'
_diffrn_measurement_device_type          KM-4
_diffrn_radiation_type                   'X-rays, Mo Ka'
_diffrn_radiation_wavelength             0.71073
_diffrn_reflns_number                    8741
_diffrn_reflns_theta_min                 3.86
_diffrn_reflns_theta_max                 29.48
_exptl_absorpt_coefficient_mu            38.142
_exptl_absorpt_correction_type           semi-empirical
_computing_structure_solution            'Patterson synthesis'
_refine_ls_number_parameters             38
_refine_ls_number_reflns                 1090
_refine_ls_R_factor_gt                   0.0301
_refine_ls_wR_factor_gt                  0.0760

# End of data set 1522068


