##############################################################################
#                                                                            #
# Cu-S             # CuS rt                                        #  252097 #
#                                                                            #
##############################################################################
#                                                                            #
#                           Pearson's Crystal Data                           #
#      Crystal Structure Database for Inorganic Compounds (on DVD)           #
#                              Release 2017/18                               #
#                  Editors: Pierre Villars and Karin Cenzual                 #
#                                                                            #
#   Copyright (c) ASM International & Material Phases Data System (MPDS),    #
# Switzerland & National Institute for Materials Science (NIMS), Japan, 2017 #
#                   All rights reserved. Version 2017.08                     #
#                                                                            #
#   This copy of Pearson's Crystal Data is licensed to:                      #
#   University of Alberta, Chemistry Department, 1-5 Installations License         #
#                                                                            #
##############################################################################

data_252097
_audit_creation_date                     2017-12-01
_audit_creation_method
;
Pearson's Crystal Data browser
;
#_database_code_PCD                      252097

# Entry summary

_chemical_formula_structural             'Cu S'
_chemical_formula_sum                    'Cu S'
_chemical_name_mineral                   covellite
_chemical_compound_source                'Italy, Sardinia, Alghero'
_chemical_name_structure_type            CuS-b,hP12,194
_chemical_formula_weight                 95.6

# Bibliographic data

_publ_section_title
'Raffinamento della struttura della covellina mediante fotogrammi di polvere' 
_journal_coden_ASTM                      AANLAW
_journal_name_full
'Atti Accad. Naz. Lincei, Cl. Sci. Fis., Mat. Nat., Rend.'                    
_journal_year                            1968
_journal_volume                          44
_journal_page_first                      290
_journal_page_last                       298
_journal_language                        Italian
loop_
 _publ_author_name
 _publ_author_address
'Bernardini G.P.'
;
Catania University
Istituto di Chimica Generale e Inorganica
Catania
Italy
;
'Catani A.'
;
Catania University
Istituto di Chimica Generale e Inorganica
Catania
Italy
;
'Carobbi G.'
;
Catania University
Istituto di Chimica Generale e Inorganica
Catania
Italy
;

# Standardized crystallographic data

_cell_length_a                           3.79
_cell_length_b                           3.79
_cell_length_c                           16.34
_cell_angle_alpha                        90
_cell_angle_beta                         90
_cell_angle_gamma                        120
_cell_volume                             203.26
_cell_formula_units_Z                    6
_space_group_IT_number                   194
_space_group_name_H-M_alt                'P 63/m m c'
loop_
 _space_group_symop_id
 _space_group_symop_operation_xyz
 1 'x, y, z'
 2 '-x+y, -x, 1/2-z'
 3 '-x+y, -x, z'
 4 '-x+y, y, 1/2-z'
 5 '-x+y, y, z'
 6 '-x, -x+y, -z'
 7 '-x, -x+y, 1/2+z'
 8 '-x, -y, -z'
 9 '-x, -y, 1/2+z'
 10 '-y, -x, 1/2-z'
 11 '-y, -x, z'
 12 '-y, x-y, 1/2-z'
 13 '-y, x-y, z'
 14 'x, x-y, 1/2-z'
 15 'x, x-y, z'
 16 'x, y, 1/2-z'
 17 'x-y, -y, -z'
 18 'x-y, -y, 1/2+z'
 19 'x-y, x, -z'
 20 'x-y, x, 1/2+z'
 21 'y, -x+y, -z'
 22 'y, -x+y, 1/2+z'
 23 'y, x, -z'
 24 'y, x, 1/2+z'
loop_
 _atom_type_symbol
 Cu
 S
loop_
 _atom_site_label
 _atom_site_type_symbol
 _atom_site_symmetry_multiplicity
 _atom_site_Wyckoff_symbol
 _atom_site_fract_x
 _atom_site_fract_y
 _atom_site_fract_z
 _atom_site_occupancy
 Cu1 Cu 4 f 0.333333 0.666667 0.107 1
 S1 S 4 e 0 0 0.06 1
 Cu2 Cu 2 d 0.333333 0.666667 0.75 1
 S2 S 2 c 0.333333 0.666667 0.25 1


_exptl_crystal_colour                    ?
_exptl_crystal_density_meas              4.60
_exptl_crystal_density_diffrn            4.69
_cell_measurement_temperature            ?
_cell_measurement_radiation              'X-rays, Cu Ka'
_cell_measurement_reflns_used            ?
_diffrn_ambient_temperature              ?
_diffrn_measurement_device               'Debye-Scherrer film'
_diffrn_measurement_device_type          ?
_diffrn_radiation_type                   'X-rays, Cu Ka'
_diffrn_reflns_number                    ?
_exptl_absorpt_coefficient_mu            ?
_exptl_absorpt_correction_type           ?
_computing_structure_solution            ?
_refine_ls_number_parameters             ?
_refine_ls_number_reflns                 ?
_refine_ls_R_factor_gt                   0.104
_refine_ls_wR_factor_gt                  ?
_pd_proc_ls_proof_R_factor               ?
_pd_proc_ls_proof_wR_factor              ?
_refine_ls_R_I_factor                    ?

# Published diffraction lines

loop_
 _refln_index_h
 _refln_index_k
 _refln_index_l
 _refln_d_spacing
 _refln_intensity_meas
 0 0 2 81.5 7
 0 0 4 40.9 2
 0 1 0 32.9 11
 0 1 1 32.1 19
 0 1 2 30.42 61
 0 1 3 28.13 100
 0 0 6 27.22 63
 0 1 5 23.17 9
 0 1 6 20.94 7
 0 0 8 20.4 6
 0 1 7 18.93 95
 0 1 8 17.32 40
 0 2 1 16.34 4
 0 2 2 16.09 8
 0 2 3 15.7 19
 1 1 6 15.53 49
 0 1 10 14.616 5
 1 1 8 13.874 6
 0 1 11 13.546 8
 0 2 7 13.406 6
 0 2 8 12.772 11
 1 2 1 12.36 3
 1 2 2 12.253 5
 1 2 3 12.082 9
 0 1 13 11.73 2
 0 0 14 11.683 2
 0 2 10 11.575 2
 0 2 11 10.999 12
 1 2 7 10.94 15
 1 2 8 10.598 14
 0 1 15 10.338 3
 1 2 9 10.25 2
 0 3 6 10.146 9
 1 1 14 9.941 3
 1 2 10 9.875 4
 0 1 16 9.746 2
 1 2 11 9.521 4
 2 2 0 9.473 11
 1 3 1 9.09 2
 1 3 2 9.051 5
 2 2 6 8.951 9
 0 2 16 8.667 2
 2 2 8 8.602 1
 1 2 14 8.506 9
 1 3 7 8.48 6
 1 3 8 8.321 8
 0 4 1 8.194 3
 0 0 20 8.172 1
 0 4 3 8.12 2
 0 3 14 7.986 2
 1 3 10 7.958 3
 0 2 18 7.935 3

# End of data set 252097


