##############################################################################
#                                                                            #
# Cu-S             # CuS rt                                        #  534588 #
#                                                                            #
##############################################################################
#                                                                            #
#                           Pearson's Crystal Data                           #
#      Crystal Structure Database for Inorganic Compounds (on DVD)           #
#                              Release 2017/18                               #
#                  Editors: Pierre Villars and Karin Cenzual                 #
#                                                                            #
#   Copyright (c) ASM International & Material Phases Data System (MPDS),    #
# Switzerland & National Institute for Materials Science (NIMS), Japan, 2017 #
#                   All rights reserved. Version 2017.08                     #
#                                                                            #
#   This copy of Pearson's Crystal Data is licensed to:                      #
#   University of Alberta, Chemistry Department, 1-5 Installations License         #
#                                                                            #
##############################################################################

data_534588
_audit_creation_date                     2017-12-04
_audit_creation_method
;
Pearson's Crystal Data browser
;
#_database_code_PCD                      534588

# Entry summary

_chemical_formula_structural             'Cu S'
_chemical_formula_sum                    'Cu S'
_chemical_name_mineral                   covellite
_chemical_compound_source                synthetic
_chemical_name_structure_type            CuS-b,hP12,194
_chemical_formula_weight                 95.6

# Bibliographic data

_publ_section_title
'Low-temperature structural distortion in CuS'                                
_journal_coden_ASTM                      ZEKRDZ
_journal_name_full                       'Z. Kristallogr.'
_journal_year                            1988
_journal_volume                          184
_journal_page_first                      111
_journal_page_last                       121
_journal_language                        English
loop_
 _publ_author_name
 _publ_author_address
'Fjellvag H.'
;
Oslo University
Kjemisk Institutt
Oslo
Norway
;
'Gronvold F.'
;
Oslo University
Kjemisk Institutt
Oslo
Norway
;
'Stolen S.'
;
Oslo University
Kjemisk Institutt
Oslo
Norway
;
'Andresen A.F.'
;
Joint Establishment for Nuclear Energy Research
Kjeller
Norway
;
'M\"uller K\"afer R.'
;
Max Planck Society
Max Planck Institut f\"ur Festk\"orperforschung
Stuttgart
Germany
;
'Simon A.'
;
Max Planck Society
Max Planck Institut f\"ur Festk\"orperforschung
Stuttgart
Germany
;

# Standardized crystallographic data

_cell_length_a                           3.791
_cell_length_b                           3.791
_cell_length_c                           16.345
_cell_angle_alpha                        90
_cell_angle_beta                         90
_cell_angle_gamma                        120
_cell_volume                             203.43
_cell_formula_units_Z                    6
_space_group_IT_number                   194
_space_group_name_H-M_alt                'P 63/m m c'
loop_
 _space_group_symop_id
 _space_group_symop_operation_xyz
 1 'x, y, z'
 2 '-x+y, -x, 1/2-z'
 3 '-x+y, -x, z'
 4 '-x+y, y, 1/2-z'
 5 '-x+y, y, z'
 6 '-x, -x+y, -z'
 7 '-x, -x+y, 1/2+z'
 8 '-x, -y, -z'
 9 '-x, -y, 1/2+z'
 10 '-y, -x, 1/2-z'
 11 '-y, -x, z'
 12 '-y, x-y, 1/2-z'
 13 '-y, x-y, z'
 14 'x, x-y, 1/2-z'
 15 'x, x-y, z'
 16 'x, y, 1/2-z'
 17 'x-y, -y, -z'
 18 'x-y, -y, 1/2+z'
 19 'x-y, x, -z'
 20 'x-y, x, 1/2+z'
 21 'y, -x+y, -z'
 22 'y, -x+y, 1/2+z'
 23 'y, x, -z'
 24 'y, x, 1/2+z'
loop_
 _atom_type_symbol
 Cu
 S
loop_
 _atom_site_label
 _atom_site_type_symbol
 _atom_site_symmetry_multiplicity
 _atom_site_Wyckoff_symbol
 _atom_site_fract_x
 _atom_site_fract_y
 _atom_site_fract_z
 _atom_site_occupancy
 Cu2 Cu 4 f 0.333333 0.666667 0.1072 1
 S2 S 4 e 0 0 0.0611 1
 Cu1 Cu 2 d 0.333333 0.666667 0.75 1
 S1 S 2 c 0.333333 0.666667 0.25 1


_exptl_crystal_colour                    ?
_exptl_crystal_density_meas              ?
_exptl_crystal_density_diffrn            4.68
_cell_measurement_temperature            295
_cell_measurement_radiation              'X-rays, Cr Ka1, Cu Ka1'
_cell_measurement_reflns_used            ?
_diffrn_ambient_temperature              295
_diffrn_measurement_device               'automatic diffractometer'
_diffrn_measurement_device_type
'Norway, Kjeller, Institute for Energy Technology, JEEP II reactor'           
_diffrn_radiation_type                   neutrons
_diffrn_radiation_wavelength             1.877
_diffrn_reflns_number                    ?
_diffrn_reflns_theta_min                 25
_diffrn_reflns_theta_max                 50
_pd_proc_2theta_range_min                50
_pd_proc_2theta_range_max                100
_exptl_absorpt_coefficient_mu            ?
_exptl_absorpt_correction_type           ?
_computing_structure_solution            'starting values from the literature'
_refine_ls_number_parameters             ?
_refine_ls_number_reflns                 ?
_refine_ls_R_factor_gt                   0.056
_refine_ls_wR_factor_gt                  ?
_pd_proc_ls_proof_R_factor               0.042
_pd_proc_ls_proof_wR_factor              ?
_refine_ls_R_I_factor                    ?

# End of data set 534588


