##############################################################################
#                                                                            #
# Cu-Sc-Si         # CuScSi hex                                    #  302312 #
#                                                                            #
##############################################################################
#                                                                            #
#                           Pearson's Crystal Data                           #
#      Crystal Structure Database for Inorganic Compounds (on DVD)           #
#                              Release 2017/18                               #
#                  Editors: Pierre Villars and Karin Cenzual                 #
#                                                                            #
#   Copyright (c) ASM International & Material Phases Data System (MPDS),    #
# Switzerland & National Institute for Materials Science (NIMS), Japan, 2017 #
#                   All rights reserved. Version 2017.08                     #
#                                                                            #
#   This copy of Pearson's Crystal Data is licensed to:                      #
#   University of Alberta, Chemistry Department, 1-5 Installations License         #
#                                                                            #
##############################################################################

data_302312
_audit_creation_date                     2017-12-01
_audit_creation_method
;
Pearson's Crystal Data browser
;
#_database_code_PCD                      302312

# Entry summary

_chemical_formula_structural             'Cu Sc Si'
_chemical_formula_sum                    'Cu Sc Si'
_chemical_name_mineral                   ?
_chemical_compound_source                ?
_chemical_name_structure_type            ZrNiAl,hP9,189
_chemical_formula_weight                 136.6

# Bibliographic data

_publ_section_title
'A note on the crystal structure of two ScCuSi phases'                        
_journal_coden_ASTM                      JCOMAH
_journal_name_full                       'J. Less-Common Met.'
_journal_year                            1981
_journal_volume                          81
_journal_page_first                      71
_journal_page_last                       78
_journal_language                        English
loop_
 _publ_author_name
 _publ_author_address
'Kotur B.Y.'
;
Lviv Ivan Franko National University
Department of Inorganic Chemistry
Lviv
Ukraine
;
'Gladyshevskii E.I.'
;
Lviv Ivan Franko National University
Department of Inorganic Chemistry
Lviv
Ukraine
;
'Sikirica M.'
;
Zagreb University
Laboratory of General and Inorganic Chemistry
Zagreb
Croatia
;

# Standardized crystallographic data

_cell_length_a                           6.426
_cell_length_b                           6.426
_cell_length_c                           3.922
_cell_angle_alpha                        90
_cell_angle_beta                         90
_cell_angle_gamma                        120
_cell_volume                             140.3
_cell_formula_units_Z                    3
_space_group_IT_number                   189
_space_group_name_H-M_alt                'P -6 2 m'
loop_
 _space_group_symop_id
 _space_group_symop_operation_xyz
 1 'x, y, z'
 2 '-x+y, -x, -z'
 3 '-x+y, -x, z'
 4 '-x, -x+y, -z'
 5 '-x, -x+y, z'
 6 '-y, x-y, -z'
 7 '-y, x-y, z'
 8 'x, y, -z'
 9 'x-y, -y, -z'
 10 'x-y, -y, z'
 11 'y, x, -z'
 12 'y, x, z'
loop_
 _atom_type_symbol
 Cu
 Sc
 Si
loop_
 _atom_site_label
 _atom_site_type_symbol
 _atom_site_symmetry_multiplicity
 _atom_site_Wyckoff_symbol
 _atom_site_fract_x
 _atom_site_fract_y
 _atom_site_fract_z
 _atom_site_occupancy
 Cu Cu 3 g 0.241 0 0.5 1
 Sc Sc 3 f 0.574 0 0 1
 Si2 Si 2 d 0.333333 0.666667 0.5 1
 Si1 Si 1 a 0 0 0 1


_exptl_crystal_colour                    ?
_exptl_crystal_density_meas              ?
_exptl_crystal_density_diffrn            4.85
_cell_measurement_temperature            ?
_cell_measurement_radiation              'X-rays, Fe Ka'
_cell_measurement_reflns_used            ?
_diffrn_ambient_temperature              ?
_diffrn_measurement_device               'automatic diffractometer'
_diffrn_measurement_device_type          ?
_diffrn_radiation_type                   'X-rays, Fe Ka'
_diffrn_reflns_number                    ?
_exptl_absorpt_coefficient_mu            ?
_exptl_absorpt_correction_type           ?
_computing_structure_solution            'starting values from the literature'
_refine_ls_number_parameters             ?
_refine_ls_number_reflns                 ?
_refine_ls_R_factor_gt                   0.149
_refine_ls_wR_factor_gt                  ?
_pd_proc_ls_proof_R_factor               ?
_pd_proc_ls_proof_wR_factor              ?
_refine_ls_R_I_factor                    ?

# Published diffraction lines

loop_
 _refln_index_h
 _refln_index_k
 _refln_index_l
 _refln_d_spacing
 _refln_intensity_meas
 1 0 0 55.67 195
 0 0 1 39.27 85
 1 1 0 32.08 102
 2 0 0 27.82 60
 1 1 1 24.85 1000
 2 0 1 22.67 887
 2 1 0 21.03 670
 0 0 2 19.63 324
 3 0 0 18.53 469
 3 0 1 16.76 14
 2 2 0 16.03 13
 3 1 0 15.45 37
 2 2 1 14.85 29
 3 1 1 14.35 364
 4 0 0 13.91 105
 3 0 2 13.47 116
 4 0 1 13.12 26
 3 2 0 12.77 14
 2 2 2 12.44 19
 4 1 0 12.13 469
 2 0 3 11.83 70
 4 1 1 11.6 74
 4 0 2 11.35 44
 5 0 0 11.11 111
 3 3 0 10.71 172
 3 3 1 10.33 156
 4 2 1 10.16 158

# End of data set 302312


