##############################################################################
#                                                                            #
# Cu-F-H-O-Si      # CuSiF6[H2O]4                                  #  381384 #
#                                                                            #
##############################################################################
#                                                                            #
#                           Pearson's Crystal Data                           #
#      Crystal Structure Database for Inorganic Compounds (on DVD)           #
#                              Release 2017/18                               #
#                  Editors: Pierre Villars and Karin Cenzual                 #
#                                                                            #
#   Copyright (c) ASM International & Material Phases Data System (MPDS),    #
# Switzerland & National Institute for Materials Science (NIMS), Japan, 2017 #
#                   All rights reserved. Version 2017.08                     #
#                                                                            #
#   This copy of Pearson's Crystal Data is licensed to:                      #
#   University of Alberta, Chemistry Department, 1-5 Installations License         #
#                                                                            #
##############################################################################

data_381384
_audit_creation_date                     2017-12-01
_audit_creation_method
;
Pearson's Crystal Data browser
;
#_database_code_PCD                      381384

# Entry summary

_chemical_formula_structural             'Cu Si F~6~ [H~2~ O]~4~'
_chemical_formula_sum                    'Cu F6 H8 O4 Si'
_chemical_name_mineral                   ?
_chemical_compound_source                ?
_chemical_name_structure_type            CuTiF~6~[H~2~O]~4~,mP24,14
_chemical_formula_weight                 277.7

# Bibliographic data

_publ_section_title
;
St\'er\'eochimie du cuivre(II) dans les fluorures et oxofluorures complexes de cuivre(II). I. Etude structurale des compos\'es du type CuMF~6~.4H~2~O, CuMOF~5~.4H~2~O et CuMO~2~F~4~.4H~2~O
;
_journal_coden_ASTM                      BSCFAS
_journal_name_full                       'Bull. Soc. Chim. Fr.'
_journal_year                            1966
_journal_volume                          ?
_journal_page_first                      2646
_journal_page_last                       2647
_journal_language                        French
loop_
 _publ_author_name
 _publ_author_address
'Fischer J.'
;
Strasbourg Louis Pasteur University
Laboratoire de Chimie
Strasbourg
France
;
'De Cian A.'
;
Strasbourg Louis Pasteur University
Laboratoire de Chimie
Strasbourg
France
;
'Weiss R.'
;
Strasbourg Louis Pasteur University
Laboratoire de Chimie
Strasbourg
France
;

# Standardized crystallographic data

_cell_length_a                           5.315
_cell_length_b                           9.64
_cell_length_c                           7.184
_cell_angle_alpha                        90
_cell_angle_beta                         105.63
_cell_angle_gamma                        90
_cell_volume                             354.5
_cell_formula_units_Z                    2
_space_group_IT_number                   14
_space_group_name_H-M_alt                'P 1 21/c 1'
loop_
 _space_group_symop_id
 _space_group_symop_operation_xyz
 1 'x, y, z'
 2 '-x, -y, -z'
 3 '-x, 1/2+y, 1/2-z'
 4 'x, 1/2-y, 1/2+z'

# Atomic positions taken from type-defining entry

loop_
 _atom_type_symbol
 F
 O
 Cu
 Si
loop_
 _atom_site_label
 _atom_site_type_symbol
 _atom_site_symmetry_multiplicity
 _atom_site_Wyckoff_symbol
 _atom_site_fract_x
 _atom_site_fract_y
 _atom_site_fract_z
 _atom_site_occupancy
 F1 F 4 e 0.118 0.357 0.381 1
 F2 F 4 e 0.225 0.055 0.218 1
 O1 O 4 e 0.268 0.625 0.077 1
 O2 O 4 e 0.366 0.344 0.113 1
 F3 F 4 e 0.764 0.118 0.061 1
 Cu1 Cu 2 d 0.5 0 0.5 1
 Si1 Si 2 a 0 0 0 1


_exptl_crystal_colour                    ?
_exptl_crystal_density_meas              ?
_exptl_crystal_density_diffrn            2.60
_cell_measurement_temperature            ?
_cell_measurement_radiation              X-rays
_cell_measurement_reflns_used            ?
_diffrn_ambient_temperature              ?
_diffrn_measurement_device               film
_diffrn_measurement_device_type          ?
_diffrn_radiation_type                   ?
_diffrn_reflns_number                    ?
_exptl_absorpt_coefficient_mu            ?
_exptl_absorpt_correction_type           ?
_computing_structure_solution            ?
_refine_ls_number_parameters             ?
_refine_ls_number_reflns                 ?
_refine_ls_R_factor_gt                   ?
_refine_ls_wR_factor_gt                  ?

# End of data set 381384


