##############################################################################
#                                                                            #
# Cu-Ge-S-Sm       # CuSm3GeS7                                     # 1521969 #
#                                                                            #
##############################################################################
#                                                                            #
#                           Pearson's Crystal Data                           #
#      Crystal Structure Database for Inorganic Compounds (on DVD)           #
#                              Release 2017/18                               #
#                  Editors: Pierre Villars and Karin Cenzual                 #
#                                                                            #
#   Copyright (c) ASM International & Material Phases Data System (MPDS),    #
# Switzerland & National Institute for Materials Science (NIMS), Japan, 2017 #
#                   All rights reserved. Version 2017.08                     #
#                                                                            #
#   This copy of Pearson's Crystal Data is licensed to:                      #
#   University of Alberta, Chemistry Department, 1-5 Installations License         #
#                                                                            #
##############################################################################

data_1521969
_audit_creation_date                     2017-12-05
_audit_creation_method
;
Pearson's Crystal Data browser
;
#_database_code_PCD                      1521969

# Entry summary

_chemical_formula_structural             'Cu Sm~3~ Ge S~7~'
_chemical_formula_sum                    'Cu Ge S7 Sm3'
_chemical_name_mineral                   ?
_chemical_compound_source                ?
_chemical_name_structure_type            CuLa~3~SiS~7~,hP24,173
_chemical_formula_weight                 811.8

# Bibliographic data

_publ_section_title
'The crystal structures of R~3~CuGeS~7~ (R= Ce-Nd, Sm, Gd-Dy and Er)'         
_journal_coden_ASTM                      JALCEU
_journal_name_full                       'J. Alloys Compd.'
_journal_year                            2006
_journal_volume                          425
_journal_page_first                      159
_journal_page_last                       163
_journal_language                        English
loop_
 _publ_author_name
 _publ_author_address
'Gulay L.D.'
;
Lutsk Lesya Ukrainka Volyn State University
Department of General and Inorganic Chemistry
Lutsk
Ukraine
;
'Lychmanyuk O.S.'
;
Lutsk Lesya Ukrainka Volyn State University
Department of General and Inorganic Chemistry
Lutsk
Ukraine
;
'Wolcyrz M.'
;
Polish Academy of Sciences
Trzebiatowski W. Institute of Low Temperature and Structure Research
Wroclaw
Poland
;
'Pietraszko A.'
;
Polish Academy of Sciences
Trzebiatowski W. Institute of Low Temperature and Structure Research
Wroclaw
Poland
;
'Olekseyuk I.D.'
;
Lutsk Lesya Ukrainka Volyn State University
Department of General and Inorganic Chemistry
Lutsk
Ukraine
;

# Standardized crystallographic data

_cell_length_a                           10.0144
_cell_length_b                           10.0144
_cell_length_c                           5.7714
_cell_angle_alpha                        90
_cell_angle_beta                         90
_cell_angle_gamma                        120
_cell_volume                             501.3
_cell_formula_units_Z                    2
_space_group_IT_number                   173
_space_group_name_H-M_alt                'P 63'
loop_
 _space_group_symop_id
 _space_group_symop_operation_xyz
 1 'x, y, z'
 2 '-x+y, -x, z'
 3 '-x, -y, 1/2+z'
 4 '-y, x-y, z'
 5 'x-y, x, 1/2+z'
 6 'y, -x+y, 1/2+z'
loop_
 _atom_type_symbol
 Sm
 S
 Ge
 Cu
loop_
 _atom_site_label
 _atom_site_type_symbol
 _atom_site_symmetry_multiplicity
 _atom_site_Wyckoff_symbol
 _atom_site_fract_x
 _atom_site_fract_y
 _atom_site_fract_z
 _atom_site_occupancy
 Sm Sm 6 c 0.129 0.3584 0.0586 1
 S2 S 6 c 0.2595 0.1629 0.026 1
 S3 S 6 c 0.5205 0.1019 0.307 1
 S1 S 2 b 0.333333 0.666667 0.264 1
 Ge Ge 2 b 0.333333 0.666667 0.6473 1
 Cu Cu 2 a 0 0 0.0 1


_exptl_crystal_colour                    ?
_exptl_crystal_density_meas              ?
_exptl_crystal_density_diffrn            5.38
_cell_measurement_temperature            ?
_cell_measurement_radiation              'X-rays, Cu Ka'
_cell_measurement_reflns_used            ?
_diffrn_ambient_temperature              ?
_diffrn_measurement_device               'automatic diffractometer'
_diffrn_measurement_device_type          'Siemens D5000'
_diffrn_radiation_type                   'X-rays, Cu Ka'
_diffrn_reflns_number                    ?
_diffrn_reflns_theta_min                 5
_diffrn_reflns_theta_max                 50
_pd_proc_2theta_range_min                10
_pd_proc_2theta_range_max                100
_exptl_absorpt_coefficient_mu            137.739
_exptl_absorpt_correction_type           ?
_computing_structure_solution            'starting values from the literature'
_refine_ls_number_parameters             ?
_refine_ls_number_reflns                 ?
_refine_ls_R_factor_gt                   ?
_refine_ls_wR_factor_gt                  ?
_pd_proc_ls_proof_R_factor               0.1678
_pd_proc_ls_proof_wR_factor              ?
_refine_ls_R_I_factor                    0.0968

# End of data set 1521969


