##############################################################################
#                                                                            #
# Cu-O-Te          # CuTe2O5                                       # 1100219 #
#                                                                            #
##############################################################################
#                                                                            #
#                           Pearson's Crystal Data                           #
#      Crystal Structure Database for Inorganic Compounds (on DVD)           #
#                              Release 2017/18                               #
#                  Editors: Pierre Villars and Karin Cenzual                 #
#                                                                            #
#   Copyright (c) ASM International & Material Phases Data System (MPDS),    #
# Switzerland & National Institute for Materials Science (NIMS), Japan, 2017 #
#                   All rights reserved. Version 2017.08                     #
#                                                                            #
#   This copy of Pearson's Crystal Data is licensed to:                      #
#   University of Alberta, Chemistry Department, 1-5 Installations License         #
#                                                                            #
##############################################################################

data_1100219
_audit_creation_date                     2017-12-04
_audit_creation_method
;
Pearson's Crystal Data browser
;
#_database_code_PCD                      1100219

# Entry summary

_chemical_formula_structural             'Cu Te~2~ O~5~'
_chemical_formula_sum                    'Cu O5 Te2'
_chemical_name_mineral                   rajite
_chemical_compound_source                ?
_chemical_name_structure_type            CuTe~2~O~5~,mP32,14
_chemical_formula_weight                 398.7

# Bibliographic data

_publ_section_title
'The Crystal Structure of CuTe~2~O~5~'                                        
_journal_coden_ASTM                      ACBCAR
_journal_name_full                       'Acta Crystallogr. B'
_journal_year                            1973
_journal_volume                          29
_journal_page_first                      963
_journal_page_last                       970
_journal_language                        English
loop_
 _publ_author_name
 _publ_author_address
'Hanke K.'
;
G\"ottingen Georg August University
Institut f\"ur Mineralogie und Kristallographie
G\"ottingen
Germany
;
'Kupcik V.'
;
G\"ottingen Georg August University
Institut f\"ur Mineralogie und Kristallographie
G\"ottingen
Germany
;
'Lindqvist O.'
;
Chalmers University of Technology
Department of Inorganic Chemistry
Gothenburg
Sweden
;

# Standardized crystallographic data

_cell_length_a                           6.871
_cell_length_b                           9.322
_cell_length_c                           7.602
_cell_angle_alpha                        90
_cell_angle_beta                         109.08
_cell_angle_gamma                        90
_cell_volume                             460.2
_cell_formula_units_Z                    4
_space_group_IT_number                   14
_space_group_name_H-M_alt                'P 1 21/c 1'
loop_
 _space_group_symop_id
 _space_group_symop_operation_xyz
 1 'x, y, z'
 2 '-x, -y, -z'
 3 '-x, 1/2+y, 1/2-z'
 4 'x, 1/2-y, 1/2+z'
loop_
 _atom_type_symbol
 O
 Te
 Cu
loop_
 _atom_site_label
 _atom_site_type_symbol
 _atom_site_symmetry_multiplicity
 _atom_site_Wyckoff_symbol
 _atom_site_fract_x
 _atom_site_fract_y
 _atom_site_fract_z
 _atom_site_occupancy
 O2 O 4 e 0.1044 0.8182 0.0351 1
 Te1 Te 4 e 0.13182 0.30031 0.08684 1
 O4 O 4 e 0.1327 0.1268 0.356 1
 O3 O 4 e 0.3185 0.1517 0.0931 1
 Cu Cu 4 e 0.34117 0.01285 0.29408 1
 O1 O 4 e 0.5015 0.3944 0.3232 1
 O5 O 4 e 0.615 0.3726 0.0067 1
 Te2 Te 4 e 0.6512 0.17651 0.05685 1


_exptl_crystal_colour                    ?
_exptl_crystal_density_meas              5.75
_exptl_crystal_density_diffrn            5.76
_cell_measurement_temperature            ?
_cell_measurement_radiation              ?
_cell_measurement_reflns_used            ?
_diffrn_ambient_temperature              ?
_diffrn_measurement_device               'automatic diffractometer'
_diffrn_measurement_device_type          'STOE 4-circle'
_diffrn_radiation_type                   'X-rays, Mo Ka'
_diffrn_reflns_number                    ?
_exptl_absorpt_coefficient_mu            17.73
_exptl_absorpt_correction_type           yes
_computing_structure_solution            'direct methods'
_refine_ls_number_parameters             ?
_refine_ls_number_reflns                 3556
_refine_ls_R_factor_gt                   0.048
_refine_ls_wR_factor_gt                  0.037

# End of data set 1100219


