##############################################################################
#                                                                            #
# D-O-P-Rb         # D2Rb[PO4] rt                                  #  558139 #
#                                                                            #
##############################################################################
#                                                                            #
#                           Pearson's Crystal Data                           #
#      Crystal Structure Database for Inorganic Compounds (on DVD)           #
#                              Release 2017/18                               #
#                  Editors: Pierre Villars and Karin Cenzual                 #
#                                                                            #
#   Copyright (c) ASM International & Material Phases Data System (MPDS),    #
# Switzerland & National Institute for Materials Science (NIMS), Japan, 2017 #
#                   All rights reserved. Version 2017.08                     #
#                                                                            #
#   This copy of Pearson's Crystal Data is licensed to:                      #
#   University of Alberta, Chemistry Department, 1-5 Installations License         #
#                                                                            #
##############################################################################

data_558139
_audit_creation_date                     2017-12-04
_audit_creation_method
;
Pearson's Crystal Data browser
;
#_database_code_PCD                      558139

# Entry summary

_chemical_formula_structural             'D~2~ Rb [P O~4~]'
_chemical_formula_sum                    'O4 P Rb'
_chemical_name_mineral                   ?
_chemical_compound_source                ?
_chemical_name_structure_type            H~2~Rb[PO~4~],mP48,4
_chemical_formula_weight                 184.5

# Bibliographic data

_publ_section_title
'X-Ray Diffraction Study of Monoclinic RbD~2~PO~4~'                           
_journal_coden_ASTM                      JUPSAU
_journal_name_full                       'J. Phys. Soc. Jpn.'
_journal_year                            1983
_journal_volume                          52
_journal_page_first                      2394
_journal_page_last                       2400
_journal_language                        English
loop_
 _publ_author_name
 _publ_author_address
'Suzuki S.'
;
Tokyo University of Science
Department of Applied Physics
Tokyo / Tokyo
Japan
;
'Arai K.'
;
Tokyo University of Science
Department of Applied Physics
Tokyo / Tokyo
Japan
;
'Sumita M.'
;
Saitama Shibaura Institute of Technology
Laboratory of Physics
Saitama / Saitama
Japan
;
'Makita Y.'
;
Tokyo University of Science
Department of Applied Physics
Tokyo / Tokyo
Japan
;

# Standardized crystallographic data

_cell_length_a                           9.566
_cell_length_b                           6.184
_cell_length_c                           15.2492
_cell_angle_alpha                        90
_cell_angle_beta                         107.63
_cell_angle_gamma                        90
_cell_volume                             859.7
_cell_formula_units_Z                    8
_space_group_IT_number                   4
_space_group_name_H-M_alt                'P 1 21 1'
loop_
 _space_group_symop_id
 _space_group_symop_operation_xyz
 1 'x, y, z'
 2 '-x, 1/2+y, -z'
loop_
 _atom_type_symbol
 O
 Rb
 P
loop_
 _atom_site_label
 _atom_site_type_symbol
 _atom_site_symmetry_multiplicity
 _atom_site_Wyckoff_symbol
 _atom_site_fract_x
 _atom_site_fract_y
 _atom_site_fract_z
 _atom_site_occupancy
 O11 O 2 a 0.0002 0.0261 0.2997 1
 O21 O 2 a 0.0053 0.511 0.2041 1
 Rb2 Rb 2 a 0.1026 0.0335 0.1321 1
 Rb1 Rb 2 a 0.1034 0.0059 0.6312 1
 O13 O 2 a 0.1298 0.1836 0.45 1
 P1 P 2 a 0.1438 0.0038 0.3784 1
 P2 P 2 a 0.1438 0.0186 0.8786 1
 O14 O 2 a 0.1593 0.7962 0.4189 1
 O23 O 2 a 0.1729 0.2448 0.9165 1
 O32 O 2 a 0.2388 0.5937 0.161 1
 O42 O 2 a 0.2436 0.4582 0.6677 1
 O12 O 2 a 0.264 0.1001 0.3418 1
 O34 O 2 a 0.3392 0.294 0.0805 1
 P3 P 2 a 0.3539 0.529 0.1227 1
 O44 O 2 a 0.3664 0.3503 0.5477 1
 O33 O 2 a 0.3665 0.6845 0.0489 1
 Rb4 Rb 2 a 0.4021 0.5282 0.367 1
 O41 O 2 a 0.4927 0.0141 0.3007 1
 O31 O 2 a 0.5014 0.5243 0.1983 1
 Rb3 Rb 2 a 0.5962 0.0091 0.1329 1
 P4 P 2 a 0.647 0.0 0.3797 1
 O43 O 2 a 0.6764 0.238 0.4183 1
 O22 O 2 a 0.7453 0.4507 0.1688 1
 O24 O 2 a 0.8683 0.3561 0.0462 1


_exptl_crystal_colour                    ?
_exptl_crystal_density_meas              ?
_exptl_crystal_density_diffrn            2.85
_cell_measurement_temperature            ?
_cell_measurement_radiation              'X-rays, Cu Ka'
_cell_measurement_wavelength             1.5405
_cell_measurement_reflns_used            ?
_diffrn_ambient_temperature              ?
_diffrn_measurement_device               'automatic diffractometer'
_diffrn_measurement_device_type          Rigaku-Denki
_diffrn_radiation_type                   'X-rays, Cu Ka'
_diffrn_radiation_wavelength             1.5405
_diffrn_reflns_number                    ?
_diffrn_reflns_theta_min                 0
_diffrn_reflns_theta_max                 67.5
_exptl_absorpt_coefficient_mu            ?
_exptl_absorpt_correction_type           ?
_computing_structure_solution            'Patterson and Fourier synthesis'
_refine_ls_number_parameters             ?
_refine_ls_number_reflns                 1406
_refine_ls_R_factor_gt                   0.057
_refine_ls_wR_factor_gt                  ?

# End of data set 558139


