##############################################################################
#                                                                            #
# D-Na-O-Se        # D3Na[SeO3]2 rt                                #  382540 #
#                                                                            #
##############################################################################
#                                                                            #
#                           Pearson's Crystal Data                           #
#      Crystal Structure Database for Inorganic Compounds (on DVD)           #
#                              Release 2017/18                               #
#                  Editors: Pierre Villars and Karin Cenzual                 #
#                                                                            #
#   Copyright (c) ASM International & Material Phases Data System (MPDS),    #
# Switzerland & National Institute for Materials Science (NIMS), Japan, 2017 #
#                   All rights reserved. Version 2017.08                     #
#                                                                            #
#   This copy of Pearson's Crystal Data is licensed to:                      #
#   University of Alberta, Chemistry Department, 1-5 Installations License         #
#                                                                            #
##############################################################################

data_382540
_audit_creation_date                     2017-12-01
_audit_creation_method
;
Pearson's Crystal Data browser
;
#_database_code_PCD                      382540

# Entry summary

_chemical_formula_structural             'D~3~ Na [Se O~3~]~2~'
_chemical_formula_sum                    'Na O6 Se2'
_chemical_name_mineral                   ?
_chemical_compound_source                ?
_chemical_name_structure_type            H~3~Na[SeO~3~]~2~,mP18,14
_chemical_formula_weight                 282.9

# Bibliographic data

_publ_section_title
'Geometric isotope effect of NaH~3~(SeO~3~)~2~'                               
_journal_coden_ASTM                      JUPSAU
_journal_name_full                       'J. Phys. Soc. Jpn.'
_journal_year                            1993
_journal_volume                          62
_journal_page_first                      3349
_journal_page_last                       3350
_journal_language                        English
loop_
 _publ_author_name
 _publ_author_address
'Ono Y.'
;
Sendai Miyagi Tohoku University
Department of Applied Physics
Sendai / Miyagi
Japan
;
'Bungo A.'
;
Sendai Miyagi Tohoku University
Department of Applied Physics
Sendai / Miyagi
Japan
;
'Yamada N.'
;
Tokyo University of Science
Department of Physics
Tokyo / Tokyo
Japan
;

# Standardized crystallographic data

_cell_length_a                           5.774
_cell_length_b                           4.8336
_cell_length_c                           11.737
_cell_angle_alpha                        90
_cell_angle_beta                         118.353
_cell_angle_gamma                        90
_cell_volume                             288.3
_cell_formula_units_Z                    2
_space_group_IT_number                   14
_space_group_name_H-M_alt                'P 1 21/c 1'
loop_
 _space_group_symop_id
 _space_group_symop_operation_xyz
 1 'x, y, z'
 2 '-x, -y, -z'
 3 '-x, 1/2+y, 1/2-z'
 4 'x, 1/2-y, 1/2+z'
loop_
 _atom_type_symbol
 O
 Se
 Na
loop_
 _atom_site_label
 _atom_site_type_symbol
 _atom_site_symmetry_multiplicity
 _atom_site_Wyckoff_symbol
 _atom_site_fract_x
 _atom_site_fract_y
 _atom_site_fract_z
 _atom_site_occupancy
 O(2) O 4 e 0.1404 0.2904 0.1927 1
 O(1) O 4 e 0.3229 0.309 0.4486 1
 Se Se 4 e 0.33716 0.11362 0.33103 1
 O(3) O 4 e 0.6451 0.2074 0.355 1
 Na Na 2 a 0 0 0 1


_exptl_crystal_colour                    ?
_exptl_crystal_density_meas              ?
_exptl_crystal_density_diffrn            3.26
_cell_measurement_temperature            ?
_cell_measurement_radiation              'X-rays, Mo Ka'
_cell_measurement_reflns_used            ?
_diffrn_ambient_temperature              ?
_diffrn_measurement_device               'automatic diffractometer'
_diffrn_measurement_device_type          'Rigaku AFC5'
_diffrn_radiation_type                   'X-rays, Mo Ka'
_diffrn_reflns_number                    ?
_diffrn_reflns_theta_min                 3.5
_diffrn_reflns_theta_max                 35
_exptl_absorpt_coefficient_mu            ?
_exptl_absorpt_correction_type           yes
_computing_structure_solution            'Patterson and Fourier synthesis'
_refine_ls_number_parameters             ?
_refine_ls_number_reflns                 1084
_refine_ls_R_factor_gt                   0.044
_refine_ls_wR_factor_gt                  ?

# End of data set 382540


