##############################################################################
#                                                                            #
# Cs-D-O-Se        # DCs3[SeO4]2 rt                                #  552260 #
#                                                                            #
##############################################################################
#                                                                            #
#                           Pearson's Crystal Data                           #
#      Crystal Structure Database for Inorganic Compounds (on DVD)           #
#                              Release 2017/18                               #
#                  Editors: Pierre Villars and Karin Cenzual                 #
#                                                                            #
#   Copyright (c) ASM International & Material Phases Data System (MPDS),    #
# Switzerland & National Institute for Materials Science (NIMS), Japan, 2017 #
#                   All rights reserved. Version 2017.08                     #
#                                                                            #
#   This copy of Pearson's Crystal Data is licensed to:                      #
#   University of Alberta, Chemistry Department, 1-5 Installations License         #
#                                                                            #
##############################################################################

data_552260
_audit_creation_date                     2017-12-04
_audit_creation_method
;
Pearson's Crystal Data browser
;
#_database_code_PCD                      552260

# Entry summary

_chemical_formula_structural             'D Cs~3~ [Se O~4~]~2~'
_chemical_formula_sum                    'Cs3 D O8 Se2'
_chemical_name_mineral                   ?
_chemical_compound_source                ?
_chemical_name_structure_type            HCs~3~[SeO~4~]~2~,mS26,12
_chemical_formula_weight                 686.6

# Bibliographic data

_publ_section_title
'Low-temperature phase transition in Cs~3~D(SeO~4~)~2~'                       
_journal_coden_ASTM                      SSCOA4
_journal_name_full                       'Solid State Commun.'
_journal_year                            1991
_journal_volume                          78
_journal_page_first                      547
_journal_page_last                       551
_journal_language                        English
loop_
 _publ_author_name
 _publ_author_address
'Ichikawa M.'
;
Sapporo Hokkaido University
Department of Physics
Sapporo / Hokkaido
Japan
;
'Gustafsson T.'
;
Uppsala University
Institute of Chemistry
Uppsala
Sweden
;
'Olovsson I.'
;
Uppsala University
Institute of Chemistry
Uppsala
Sweden
;

# Standardized crystallographic data

_cell_length_a                           10.892
_cell_length_b                           6.3867
_cell_length_c                           8.4472
_cell_angle_alpha                        90
_cell_angle_beta                         112.4
_cell_angle_gamma                        90
_cell_volume                             543.3
_cell_formula_units_Z                    2
_space_group_IT_number                   12
_space_group_name_H-M_alt                'C 1 2/m 1'
loop_
 _space_group_symop_id
 _space_group_symop_operation_xyz
 1 'x, y, z'
 2 '-x, -y, -z'
 3 '-x, y, -z'
 4 'x, -y, z'
 5 '1/2+x, 1/2+y, z'
 6 '1/2-x, 1/2-y, -z'
 7 '1/2-x, 1/2+y, -z'
 8 '1/2+x, 1/2-y, z'

# Atomic positions taken from type-defining entry

loop_
 _atom_type_symbol
 O
 Cs
 Se
loop_
 _atom_site_label
 _atom_site_type_symbol
 _atom_site_symmetry_multiplicity
 _atom_site_Wyckoff_symbol
 _atom_site_fract_x
 _atom_site_fract_y
 _atom_site_fract_z
 _atom_site_occupancy
 O1 O 8 j 0.0138 0.2877 0.3107 1
 Cs1 Cs 4 i 0.1976 0 0.6081 1
 O2 O 4 i 0.2883 0 0.2633 1
 O3 O 4 i 0.3921 0 0.0209 1
 Se1 Se 4 i 0.4266 0 0.2342 1
 Cs2 Cs 2 a 0 0 0 1


_exptl_crystal_colour                    ?
_exptl_crystal_density_meas              ?
_exptl_crystal_density_diffrn            4.20
_cell_measurement_temperature            300
_cell_measurement_radiation              X-rays
_cell_measurement_reflns_used            ?
_diffrn_ambient_temperature              ?
_diffrn_measurement_device               'automatic diffractometer'
_diffrn_measurement_device_type          ?
_diffrn_radiation_type                   ?
_diffrn_reflns_number                    ?
_exptl_absorpt_coefficient_mu            ?
_exptl_absorpt_correction_type           ?
_computing_structure_solution            ?
_refine_ls_number_parameters             ?
_refine_ls_number_reflns                 ?
_refine_ls_R_factor_gt                   ?
_refine_ls_wR_factor_gt                  ?

# End of data set 552260


