##############################################################################
#                                                                            #
# Cs-D-O-Se        # DCs[SeO4] rt                                  # 1001233 #
#                                                                            #
##############################################################################
#                                                                            #
#                           Pearson's Crystal Data                           #
#      Crystal Structure Database for Inorganic Compounds (on DVD)           #
#                              Release 2017/18                               #
#                  Editors: Pierre Villars and Karin Cenzual                 #
#                                                                            #
#   Copyright (c) ASM International & Material Phases Data System (MPDS),    #
# Switzerland & National Institute for Materials Science (NIMS), Japan, 2017 #
#                   All rights reserved. Version 2017.08                     #
#                                                                            #
#   This copy of Pearson's Crystal Data is licensed to:                      #
#   University of Alberta, Chemistry Department, 1-5 Installations License         #
#                                                                            #
##############################################################################

data_1001233
_audit_creation_date                     2017-12-04
_audit_creation_method
;
Pearson's Crystal Data browser
;
#_database_code_PCD                      1001233

# Entry summary

_chemical_formula_structural             'D Cs [Se O~4~]'
_chemical_formula_sum                    'Cs D O4 Se'
_chemical_name_mineral                   ?
_chemical_compound_source                ?
_chemical_name_structure_type            HCs[SO~4~]-a,mP24,14
_chemical_formula_weight                 277.9

# Bibliographic data

_publ_section_title
;
Neutron-diffraction investigation of superionic phase transition in cesium hydro-and deuteroselenates
;
_journal_coden_ASTM                      SPHCA6
_journal_name_full                       'Sov. Phys. Crystallogr.'
_journal_year                            1986
_journal_volume                          31
_journal_page_first                      643
_journal_page_last                       647
_journal_language                        English
loop_
 _publ_author_name
 _publ_author_address
'Balagurov A.M.'
;
Russian Academy of Sciences
Joint Institute of Nuclear Research
Dubna
Russia
;
'Beskrovnyi A.I.'
;
Russian Academy of Sciences
Joint Institute of Nuclear Research
Dubna
Russia
;
'Datt I.D.'
;
Russian Academy of Sciences
Moscow Chemical Technology Institute
Moscow
Russia
;
'Shuvalov L.A.'
;
Russian Academy of Sciences
Moscow Chemical Technology Institute
Moscow
Russia
;
'Shchagina N.M.'
;
Russian Academy of Sciences
Shubnikov A.V. Institute of Crystallography
Moscow
Russia
;

# Standardized crystallographic data

_cell_length_a                           7.983
_cell_length_b                           8.427
_cell_length_c                           7.814
_cell_angle_alpha                        90
_cell_angle_beta                         111.3
_cell_angle_gamma                        90
_cell_volume                             489.8
_cell_formula_units_Z                    4
_space_group_IT_number                   14
_space_group_name_H-M_alt                'P 1 21/c 1'
loop_
 _space_group_symop_id
 _space_group_symop_operation_xyz
 1 'x, y, z'
 2 '-x, -y, -z'
 3 '-x, 1/2+y, 1/2-z'
 4 'x, 1/2-y, 1/2+z'

# Atomic positions taken from type-defining entry

loop_
 _atom_type_symbol
 O
 Cs
 Se
loop_
 _atom_site_label
 _atom_site_type_symbol
 _atom_site_symmetry_multiplicity
 _atom_site_Wyckoff_symbol
 _atom_site_fract_x
 _atom_site_fract_y
 _atom_site_fract_z
 _atom_site_occupancy
 O1 O 4 e 0.1039 0.2454 0.1409 1
 Cs1 Cs 4 e 0.21567 0.62914 0.20641 1
 Se1 Se 4 e 0.2478 0.1273 0.2205 1
 O2 O 4 e 0.334 0.0711 0.0923 1
 O3 O 4 e 0.4102 0.2207 0.3685 1
 O4 O 4 e 0.8072 0.4953 0.1869 1


_exptl_crystal_colour                    ?
_exptl_crystal_density_meas              ?
_exptl_crystal_density_diffrn            3.77
_cell_measurement_temperature            ?
_cell_measurement_radiation              'neutrons, time-of-flight'
_cell_measurement_reflns_used            ?
_diffrn_ambient_temperature              ?
_diffrn_measurement_device               'automatic diffractometer'
_diffrn_measurement_device_type          ?
_diffrn_radiation_type                   ?
_diffrn_reflns_number                    ?
_exptl_absorpt_coefficient_mu            ?
_exptl_absorpt_correction_type           ?
_computing_structure_solution            ?
_refine_ls_number_parameters             ?
_refine_ls_number_reflns                 ?
_refine_ls_R_factor_gt                   ?
_refine_ls_wR_factor_gt                  ?

# End of data set 1001233


