##############################################################################
#                                                                            #
# D-Rb-S           # DRbS lt                                       #  462191 #
#                                                                            #
##############################################################################
#                                                                            #
#                           Pearson's Crystal Data                           #
#      Crystal Structure Database for Inorganic Compounds (on DVD)           #
#                              Release 2017/18                               #
#                  Editors: Pierre Villars and Karin Cenzual                 #
#                                                                            #
#   Copyright (c) ASM International & Material Phases Data System (MPDS),    #
# Switzerland & National Institute for Materials Science (NIMS), Japan, 2017 #
#                   All rights reserved. Version 2017.08                     #
#                                                                            #
#   This copy of Pearson's Crystal Data is licensed to:                      #
#   University of Alberta, Chemistry Department, 1-5 Installations License         #
#                                                                            #
##############################################################################

data_462191
_audit_creation_date                     2017-12-01
_audit_creation_method
;
Pearson's Crystal Data browser
;
#_database_code_PCD                      462191

# Entry summary

_chemical_formula_structural             'D Rb S'
_chemical_formula_sum                    'D Rb S'
_chemical_name_mineral                   ?
_chemical_compound_source                ?
_chemical_name_structure_type            Na[OH],mP4,11
_chemical_formula_weight                 119.5

# Bibliographic data

_publ_section_title
;
Dynamik linearer Molek\"ulanionen in den Hydrogensulfiden von Natrium, Kalium und Rubidium: Differential-Scanning- Kalorimetrie, R\"ontgen- und Neutronenbeugung
;
_journal_coden_ASTM                      ZAACAB
_journal_name_full                       'Z. Anorg. Allg. Chem.'
_journal_year                            1991
_journal_volume                          598/599
_journal_page_first                      175
_journal_page_last                       192
_journal_language                        German
loop_
 _publ_author_name
 _publ_author_address
'Jacobs H.'
;
Dortmund Technical University
Fachbereich Chemie
Dortmund
Germany
;
'Metzner U.'
;
Dortmund Technical University
Fachbereich Chemie
Dortmund
Germany
;
'Kirchg\"assner R.'
;
Dortmund Technical University
Fachbereich Chemie
Dortmund
Germany
;
'Lutz H.D.'
;
Siegen University
Institut f\"ur Anorganische Chemie
Siegen
Germany
;
'Beckenkamp K.'
;
Siegen University
Institut f\"ur Anorganische Chemie
Siegen
Germany
;

# Standardized crystallographic data

_cell_length_a                           4.526
_cell_length_b                           5.121
_cell_length_c                           6.843
_cell_angle_alpha                        90
_cell_angle_beta                         101.64
_cell_angle_gamma                        90
_cell_volume                             155.3
_cell_formula_units_Z                    2
_space_group_IT_number                   11
_space_group_name_H-M_alt                'P 1 21/m 1'
loop_
 _space_group_symop_id
 _space_group_symop_operation_xyz
 1 'x, y, z'
 2 '-x, -y, -z'
 3 '-x, 1/2+y, -z'
 4 'x, 1/2-y, z'
loop_
 _atom_type_symbol
 SD
 Rb
loop_
 _atom_site_label
 _atom_site_type_symbol
 _atom_site_symmetry_multiplicity
 _atom_site_Wyckoff_symbol
 _atom_site_fract_x
 _atom_site_fract_y
 _atom_site_fract_z
 _atom_site_occupancy
 S SD 2 e 0.24 0.25 0.25 1
 Rb Rb 2 e 0.273 0.25 0.738 1


_exptl_crystal_colour                    ?
_exptl_crystal_density_meas              ?
_exptl_crystal_density_diffrn            2.56
_cell_measurement_temperature            9
_cell_measurement_radiation              'X-rays, Cu Ka1'
_cell_measurement_wavelength             1.54051
_pd_proc_wavelength                      1.54051
_cell_measurement_reflns_used            ?
_diffrn_ambient_temperature              9
_diffrn_measurement_device               'automatic diffractometer'
_diffrn_measurement_device_type          ?
_diffrn_radiation_type                   'X-rays, Cu Ka1'
_diffrn_radiation_wavelength             1.54051
_diffrn_reflns_number                    ?
_exptl_absorpt_coefficient_mu            ?
_exptl_absorpt_correction_type           ?
_computing_structure_solution            'starting values from the literature'
_refine_ls_number_parameters             ?
_refine_ls_number_reflns                 ?
_refine_ls_R_factor_gt                   ?
_refine_ls_wR_factor_gt                  ?
_pd_proc_ls_proof_R_factor               ?
_pd_proc_ls_proof_wR_factor              ?
_refine_ls_R_I_factor                    ?

# Published diffraction lines

loop_
 _refln_index_h
 _refln_index_k
 _refln_index_l
 _refln_d_spacing
 _refln_intensity_meas
 1 0 -1 217.4 10
 0 1 1 219 15
 1 0 1 262.8 11
 1 1 0 266.4 100
 1 1 -1 279 3
 1 0 -2 300.2 2
 0 1 2 319.4 1
 1 1 -2 348.8 25
 0 2 0 350.6 19
 2 0 -1 401.6 1
 1 2 0 407 9
 1 1 2 409.2 26
 1 0 -3 414.6 2
 1 2 -1 416 3
 2 1 -1 440.4 3
 2 0 -2 442.4 7
 2 1 0 445.2 13
 2 1 -2 478 1
 2 1 1 491.8 2
 2 0 2 540 4
 2 2 0 547.4 8
 2 1 -3 550.6 2
 1 2 -3 553 2
 0 3 1 554.8 1
 2 2 -2 576.2 7
 1 3 0 578.8 5

# End of data set 462191


