##############################################################################
#                                                                            #
# Co-Dy            # Dy12Co7                                       #  451656 #
#                                                                            #
##############################################################################
#                                                                            #
#                           Pearson's Crystal Data                           #
#      Crystal Structure Database for Inorganic Compounds (on DVD)           #
#                              Release 2017/18                               #
#                  Editors: Pierre Villars and Karin Cenzual                 #
#                                                                            #
#   Copyright (c) ASM International & Material Phases Data System (MPDS),    #
# Switzerland & National Institute for Materials Science (NIMS), Japan, 2017 #
#                   All rights reserved. Version 2017.08                     #
#                                                                            #
#   This copy of Pearson's Crystal Data is licensed to:                      #
#   University of Alberta, Chemistry Department, 1-5 Installations License         #
#                                                                            #
##############################################################################

data_451656
_audit_creation_date                     2017-12-01
_audit_creation_method
;
Pearson's Crystal Data browser
;
#_database_code_PCD                      451656

# Entry summary

_chemical_formula_structural             'Dy~12~ Co~7~'
_chemical_formula_sum                    'Co7 Dy12'
_chemical_name_mineral                   ?
_chemical_compound_source                ?
_chemical_name_structure_type            Ho~12~Co~7~,mP38,14
_chemical_formula_weight                 2362.5

# Bibliographic data

_publ_section_title
'R~12~Co~7~ Compounds with R= Gd, Tb, Dy, Ho, Er'                             
_journal_coden_ASTM                      ACBCAR
_journal_name_full                       'Acta Crystallogr. B'
_journal_year                            1976
_journal_volume                          32
_journal_page_first                      2697
_journal_page_last                       2699
_journal_language                        English
loop_
 _publ_author_name
 _publ_author_address
'Adams W.'
;
Wright Patterson Air Force Base
Air Force Materials Laboratory
Dayton
U.S.A. Ohio
;
'Moreau J.M.'
;
Geneva University
Laboratoire de Cristallographie aux Rayons X
Geneva
Switzerland
;
'Parth\'e E.'
;
Geneva University
Laboratoire de Cristallographie aux Rayons X
Geneva
Switzerland
;
'Schweizer J.'
;
Ohio Dayton University
Research Center
Dayton
U.S.A. Ohio
;

# Standardized crystallographic data

_cell_length_a                           8.36
_cell_length_b                           11.25
_cell_length_c                           11.0945
_cell_angle_alpha                        90
_cell_angle_beta                         124.265
_cell_angle_gamma                        90
_cell_volume                             862.34
_cell_formula_units_Z                    2
_space_group_IT_number                   14
_space_group_name_H-M_alt                'P 1 21/c 1'
loop_
 _space_group_symop_id
 _space_group_symop_operation_xyz
 1 'x, y, z'
 2 '-x, -y, -z'
 3 '-x, 1/2+y, 1/2-z'
 4 'x, 1/2-y, 1/2+z'

# Atomic positions taken from type-defining entry

loop_
 _atom_type_symbol
 Dy
 Co
loop_
 _atom_site_label
 _atom_site_type_symbol
 _atom_site_symmetry_multiplicity
 _atom_site_Wyckoff_symbol
 _atom_site_fract_x
 _atom_site_fract_y
 _atom_site_fract_z
 _atom_site_occupancy
 Dy1 Dy 4 e 0.0007 0.160 0.3397 1
 Co1 Co 4 e 0.010 0.411 0.094 1
 Dy2 Dy 4 e 0.2476 0.2027 0.1729 1
 Dy3 Dy 4 e 0.2671 0.7957 0.0396 1
 Dy4 Dy 4 e 0.2723 0.4281 0.4137 1
 Dy5 Dy 4 e 0.3621 0.505 0.1528 1
 Co2 Co 4 e 0.418 0.164 0.471 1
 Co3 Co 4 e 0.591 0.194 0.152 1
 Dy6 Dy 4 e 0.7737 0.4296 0.1969 1
 Co4 Co 2 a 0 0 0 1


_exptl_crystal_colour                    ?
_exptl_crystal_density_meas              ?
_exptl_crystal_density_diffrn            9.10
_cell_measurement_temperature            ?
_cell_measurement_radiation              'X-rays, Cu Ka'
_cell_measurement_reflns_used            ?
_diffrn_ambient_temperature              ?
_diffrn_measurement_device               'Guinier-de Wolff film'
_diffrn_measurement_device_type          ?
_diffrn_radiation_type                   ?
_diffrn_reflns_number                    ?
_exptl_absorpt_coefficient_mu            ?
_exptl_absorpt_correction_type           ?
_computing_structure_solution            ?
_refine_ls_number_parameters             ?
_refine_ls_number_reflns                 ?
_refine_ls_R_factor_gt                   ?
_refine_ls_wR_factor_gt                  ?

# End of data set 451656


