##############################################################################
#                                                                            #
# Co-Dy-Ge         # Dy2Co3Ge5                                     #  460204 #
#                                                                            #
##############################################################################
#                                                                            #
#                           Pearson's Crystal Data                           #
#      Crystal Structure Database for Inorganic Compounds (on DVD)           #
#                              Release 2017/18                               #
#                  Editors: Pierre Villars and Karin Cenzual                 #
#                                                                            #
#   Copyright (c) ASM International & Material Phases Data System (MPDS),    #
# Switzerland & National Institute for Materials Science (NIMS), Japan, 2017 #
#                   All rights reserved. Version 2017.08                     #
#                                                                            #
#   This copy of Pearson's Crystal Data is licensed to:                      #
#   University of Alberta, Chemistry Department, 1-5 Installations License         #
#                                                                            #
##############################################################################

data_460204
_audit_creation_date                     2017-12-01
_audit_creation_method
;
Pearson's Crystal Data browser
;
#_database_code_PCD                      460204

# Entry summary

_chemical_formula_structural             'Dy~2~ Co~3~ Ge~5~'
_chemical_formula_sum                    'Co3 Dy2 Ge5'
_chemical_name_mineral                   ?
_chemical_compound_source                ?
_chemical_name_structure_type            Lu~2~Co~3~Si~5~,mS40,15
_chemical_formula_weight                 864.7

# Bibliographic data

_publ_section_title
;
De nouveaux isotypes de U~2~Co~3~Si~5~ ou Lu~2~Co~3~Si~5~ dans les syst\`emes R-T-Ge (R= \'el\'ements des terres rares; T= Ru, Co, Rh, Ir). Supraconductivit\'e de Y~2~Ir~3~Ge~5~
;
_journal_coden_ASTM                      MRBUAC
_journal_name_full                       'Mater. Res. Bull.'
_journal_year                            1986
_journal_volume                          21
_journal_page_first                      33
_journal_page_last                       39
_journal_language                        French
loop_
 _publ_author_name
 _publ_author_address
'Venturini G.'
;
Vandoeuvre-l\`es-Nancy I Henri Poincar\'e University
Laboratoire de Chimie du Solide Min\'erale
Vandoeuvre-l\`es-Nancy
France
;
'M\'eot Meyer M.'
;
Vandoeuvre-l\`es-Nancy I Henri Poincar\'e University
Laboratoire de Chimie du Solide Min\'erale
Vandoeuvre-l\`es-Nancy
France
;
'Mar\'ech\'e J.F.'
;
Vandoeuvre-l\`es-Nancy I Henri Poincar\'e University
Laboratoire de Chimie du Solide Min\'erale
Vandoeuvre-l\`es-Nancy
France
;
'Malaman B.'
;
Vandoeuvre-l\`es-Nancy I Henri Poincar\'e University
Laboratoire de Chimie du Solide Min\'erale
Vandoeuvre-l\`es-Nancy
France
;
'Roques B.'
;
Vandoeuvre-l\`es-Nancy I Henri Poincar\'e University
Laboratoire de Chimie du Solide Min\'erale
Vandoeuvre-l\`es-Nancy
France
;

# Standardized crystallographic data

_cell_length_a                           11.0188
_cell_length_b                           11.9
_cell_length_c                           5.707
_cell_angle_alpha                        90
_cell_angle_beta                         119.173
_cell_angle_gamma                        90
_cell_volume                             653.4
_cell_formula_units_Z                    4
_space_group_IT_number                   15
_space_group_name_H-M_alt                'C 1 2/c 1'
loop_
 _space_group_symop_id
 _space_group_symop_operation_xyz
 1 'x, y, z'
 2 '-x, -y, -z'
 3 '-x, y, 1/2-z'
 4 'x, -y, 1/2+z'
 5 '1/2+x, 1/2+y, z'
 6 '1/2-x, 1/2-y, -z'
 7 '1/2-x, 1/2+y, 1/2-z'
 8 '1/2+x, 1/2-y, 1/2+z'

# Atomic positions taken from type-defining entry

loop_
 _atom_type_symbol
 Co
 Dy
 Ge
loop_
 _atom_site_label
 _atom_site_type_symbol
 _atom_site_symmetry_multiplicity
 _atom_site_Wyckoff_symbol
 _atom_site_fract_x
 _atom_site_fract_y
 _atom_site_fract_z
 _atom_site_occupancy
 Co1 Co 8 f 0.098 0.3592 0.1252 1
 Dy1 Dy 8 f 0.26731 0.13748 0.2649 1
 Ge1 Ge 8 f 0.3323 0.402 0.33 1
 Co2 Co 4 e 0 0.0031 0.25 1
 Ge2 Ge 4 e 0 0.2134 0.25 1
 Ge3 Ge 4 e 0 0.5127 0.25 1
 Ge4 Ge 4 e 0 0.7737 0.25 1


_exptl_crystal_colour                    ?
_exptl_crystal_density_meas              ?
_exptl_crystal_density_diffrn            8.79
_cell_measurement_temperature            ?
_cell_measurement_radiation              'X-rays, Cu Ka'
_cell_measurement_reflns_used            ?
_diffrn_ambient_temperature              ?
_diffrn_measurement_device               'Guinier film'
_diffrn_measurement_device_type          ?
_diffrn_radiation_type                   ?
_diffrn_reflns_number                    ?
_exptl_absorpt_coefficient_mu            ?
_exptl_absorpt_correction_type           ?
_computing_structure_solution            ?
_refine_ls_number_parameters             ?
_refine_ls_number_reflns                 ?
_refine_ls_R_factor_gt                   ?
_refine_ls_wR_factor_gt                  ?

# End of data set 460204


