##############################################################################
#                                                                            #
# Dy-Ni            # Dy2Ni7 hex                                    #  526138 #
#                                                                            #
##############################################################################
#                                                                            #
#                           Pearson's Crystal Data                           #
#      Crystal Structure Database for Inorganic Compounds (on DVD)           #
#                              Release 2017/18                               #
#                  Editors: Pierre Villars and Karin Cenzual                 #
#                                                                            #
#   Copyright (c) ASM International & Material Phases Data System (MPDS),    #
# Switzerland & National Institute for Materials Science (NIMS), Japan, 2017 #
#                   All rights reserved. Version 2017.08                     #
#                                                                            #
#   This copy of Pearson's Crystal Data is licensed to:                      #
#   University of Alberta, Chemistry Department, 1-5 Installations License         #
#                                                                            #
##############################################################################

data_526138
_audit_creation_date                     2017-12-01
_audit_creation_method
;
Pearson's Crystal Data browser
;
#_database_code_PCD                      526138

# Entry summary

_chemical_formula_structural             'Dy~2~ Ni~7~'
_chemical_formula_sum                    'Dy2 Ni7'
_chemical_name_mineral                   ?
_chemical_compound_source                ?
_chemical_name_structure_type            Ce~2~Ni~7~,hP36,194
_chemical_formula_weight                 735.9

# Bibliographic data

_publ_section_title
;
Propri\'et\'es magn\'etiques des alliages de formule T~2~Ni~7~, dans laquelle T d\'esigne un m\'etal de terre rare ou l'yttrium
;
_journal_coden_ASTM                      CHDBAN
_journal_name_full                       'C. R. Seances Acad. Sci., Ser. B'
_journal_year                            1967
_journal_volume                          265
_journal_page_first                      1280
_journal_page_last                       1282
_journal_language                        French
loop_
 _publ_author_name
 _publ_author_address
'Lemaire R.'
;
Grenoble Joseph Fourier Institute
Laboratoire d'Electrostatique et de Physique du M\'etal
Grenoble
France
;
'Paccard D.'
;
Grenoble Joseph Fourier Institute
Laboratoire d'Electrostatique et de Physique du M\'etal
Grenoble
France
;
'Pauthenet R.'
;
Grenoble Joseph Fourier Institute
Laboratoire d'Electrostatique et de Physique du M\'etal
Grenoble
France
;

# Standardized crystallographic data

_cell_length_a                           4.93
_cell_length_b                           4.93
_cell_length_c                           24.05
_cell_angle_alpha                        90
_cell_angle_beta                         90
_cell_angle_gamma                        120
_cell_volume                             506.22
_cell_formula_units_Z                    4
_space_group_IT_number                   194
_space_group_name_H-M_alt                'P 63/m m c'
loop_
 _space_group_symop_id
 _space_group_symop_operation_xyz
 1 'x, y, z'
 2 '-x+y, -x, 1/2-z'
 3 '-x+y, -x, z'
 4 '-x+y, y, 1/2-z'
 5 '-x+y, y, z'
 6 '-x, -x+y, -z'
 7 '-x, -x+y, 1/2+z'
 8 '-x, -y, -z'
 9 '-x, -y, 1/2+z'
 10 '-y, -x, 1/2-z'
 11 '-y, -x, z'
 12 '-y, x-y, 1/2-z'
 13 '-y, x-y, z'
 14 'x, x-y, 1/2-z'
 15 'x, x-y, z'
 16 'x, y, 1/2-z'
 17 'x-y, -y, -z'
 18 'x-y, -y, 1/2+z'
 19 'x-y, x, -z'
 20 'x-y, x, 1/2+z'
 21 'y, -x+y, -z'
 22 'y, -x+y, 1/2+z'
 23 'y, x, -z'
 24 'y, x, 1/2+z'

# Atomic positions taken from type-defining entry

loop_
 _atom_type_symbol
 Ni
 Dy
loop_
 _atom_site_label
 _atom_site_type_symbol
 _atom_site_symmetry_multiplicity
 _atom_site_Wyckoff_symbol
 _atom_site_fract_x
 _atom_site_fract_y
 _atom_site_fract_z
 _atom_site_occupancy
 Ni1 Ni 12 k 0.1662 0.3324 0.0854 1
 Ni2 Ni 6 h 0.1649 0.3298 0.25 1
 Ni3 Ni 4 f 0.333333 0.666667 0.1666 1
 Dy1 Dy 4 f 0.333333 0.666667 0.5302 1
 Dy2 Dy 4 f 0.333333 0.666667 0.6747 1
 Ni4 Ni 4 e 0 0 0.1670 1
 Ni5 Ni 2 a 0 0 0 1


_exptl_crystal_colour                    ?
_exptl_crystal_density_meas              ?
_exptl_crystal_density_diffrn            9.66
_cell_measurement_temperature            ?
_cell_measurement_radiation              X-rays
_cell_measurement_reflns_used            ?
_diffrn_ambient_temperature              ?
_diffrn_measurement_device               ?
_diffrn_measurement_device_type          ?
_diffrn_radiation_type                   ?
_diffrn_reflns_number                    ?
_exptl_absorpt_coefficient_mu            ?
_exptl_absorpt_correction_type           ?
_computing_structure_solution            ?
_refine_ls_number_parameters             ?
_refine_ls_number_reflns                 ?
_refine_ls_R_factor_gt                   ?
_refine_ls_wR_factor_gt                  ?

# End of data set 526138


