##############################################################################
#                                                                            #
# Dy-O             # Dy2O3 ht1                                     #  308024 #
#                                                                            #
##############################################################################
#                                                                            #
#                           Pearson's Crystal Data                           #
#      Crystal Structure Database for Inorganic Compounds (on DVD)           #
#                              Release 2017/18                               #
#                  Editors: Pierre Villars and Karin Cenzual                 #
#                                                                            #
#   Copyright (c) ASM International & Material Phases Data System (MPDS),    #
# Switzerland & National Institute for Materials Science (NIMS), Japan, 2017 #
#                   All rights reserved. Version 2017.08                     #
#                                                                            #
#   This copy of Pearson's Crystal Data is licensed to:                      #
#   University of Alberta, Chemistry Department, 1-5 Installations License         #
#                                                                            #
##############################################################################

data_308024
_audit_creation_date                     2017-12-01
_audit_creation_method
;
Pearson's Crystal Data browser
;
#_database_code_PCD                      308024

# Entry summary

_chemical_formula_structural             'Dy~2~ O~3~'
_chemical_formula_sum                    'Dy2 O3'
_chemical_name_mineral                   ?
_chemical_compound_source                ?
_chemical_name_structure_type            Sm~2~O~3~,mS30,12
_chemical_formula_weight                 373.0

# Bibliographic data

_publ_section_title
;
Vaporisation en atmosph\`ere control\'ee des oxydes de lanthanides liquides. Etude des phases obtenues par trempe des vapeurs
;
_journal_coden_ASTM                      CHDCAQ
_journal_name_full                       'C. R. Seances Acad. Sci., Ser. C'
_journal_year                            1972
_journal_volume                          275
_journal_page_first                      1203
_journal_page_last                       1206
_journal_language                        French
loop_
 _publ_author_name
 _publ_author_address
'Coutures J.P.'
;
Centre National de la Recherche Scientifique (CNRS)
Laboratoire des Ultra-R\'efractaires
Font-Romeu
France
;
'Coutures J.P.'
;
Centre National de la Recherche Scientifique (CNRS)
Laboratoire des Ultra-R\'efractaires
Font-Romeu
France
;
'Renard R.'
;
Centre National de la Recherche Scientifique (CNRS)
Laboratoire des Ultra-R\'efractaires
Font-Romeu
France
;
'Benezech G.'
;
Centre National de la Recherche Scientifique (CNRS)
Laboratoire des Ultra-R\'efractaires
Font-Romeu
France
;

# Standardized crystallographic data

_cell_length_a                           13.94
_cell_length_b                           3.52
_cell_length_c                           8.656
_cell_angle_alpha                        90
_cell_angle_beta                         100.25
_cell_angle_gamma                        90
_cell_volume                             418
_cell_formula_units_Z                    6
_space_group_IT_number                   12
_space_group_name_H-M_alt                'C 1 2/m 1'
loop_
 _space_group_symop_id
 _space_group_symop_operation_xyz
 1 'x, y, z'
 2 '-x, -y, -z'
 3 '-x, y, -z'
 4 'x, -y, z'
 5 '1/2+x, 1/2+y, z'
 6 '1/2-x, 1/2-y, -z'
 7 '1/2-x, 1/2+y, -z'
 8 '1/2+x, 1/2-y, z'

# Atomic positions taken from type-defining entry

loop_
 _atom_type_symbol
 O
 Dy
loop_
 _atom_site_label
 _atom_site_type_symbol
 _atom_site_symmetry_multiplicity
 _atom_site_Wyckoff_symbol
 _atom_site_fract_x
 _atom_site_fract_y
 _atom_site_fract_z
 _atom_site_occupancy
 O1 O 4 i 0.0259 0 0.6562 1
 Dy1 Dy 4 i 0.13463 0 0.49003 1
 Dy2 Dy 4 i 0.18996 0 0.13782 1
 O2 O 4 i 0.2984 0 0.3738 1
 O3 O 4 i 0.3250 0 0.0265 1
 Dy3 Dy 4 i 0.46627 0 0.18794 1
 O4 O 4 i 0.6289 0 0.2864 1
 O5 O 2 a 0 0 0 1


_exptl_crystal_colour                    ?
_exptl_crystal_density_meas              ?
_exptl_crystal_density_diffrn            8.89
_cell_measurement_temperature            ?
_cell_measurement_radiation              'X-rays, Cu Ka'
_cell_measurement_reflns_used            ?
_diffrn_ambient_temperature              ?
_diffrn_measurement_device               'automatic diffractometer'
_diffrn_measurement_device_type          ?
_diffrn_radiation_type                   ?
_diffrn_reflns_number                    ?
_exptl_absorpt_coefficient_mu            ?
_exptl_absorpt_correction_type           ?
_computing_structure_solution            ?
_refine_ls_number_parameters             ?
_refine_ls_number_reflns                 ?
_refine_ls_R_factor_gt                   ?
_refine_ls_wR_factor_gt                  ?

# End of data set 308024


