##############################################################################
#                                                                            #
# Dy-Rh-Si         # Dy2Rh3Si5 mon                                 #  539566 #
#                                                                            #
##############################################################################
#                                                                            #
#                           Pearson's Crystal Data                           #
#      Crystal Structure Database for Inorganic Compounds (on DVD)           #
#                              Release 2017/18                               #
#                  Editors: Pierre Villars and Karin Cenzual                 #
#                                                                            #
#   Copyright (c) ASM International & Material Phases Data System (MPDS),    #
# Switzerland & National Institute for Materials Science (NIMS), Japan, 2017 #
#                   All rights reserved. Version 2017.08                     #
#                                                                            #
#   This copy of Pearson's Crystal Data is licensed to:                      #
#   University of Alberta, Chemistry Department, 1-5 Installations License         #
#                                                                            #
##############################################################################

data_539566
_audit_creation_date                     2017-12-04
_audit_creation_method
;
Pearson's Crystal Data browser
;
#_database_code_PCD                      539566

# Entry summary

_chemical_formula_structural             'Dy~2~ Rh~3~ Si~5~'
_chemical_formula_sum                    'Dy2 Rh3 Si5'
_chemical_name_mineral                   ?
_chemical_compound_source                ?
_chemical_name_structure_type            Lu~2~Co~3~Si~5~,mS40,15
_chemical_formula_weight                 774.1

# Bibliographic data

_publ_section_title
;
Y~2~Rh~3~Si~5~, Dy~2~Rh~3~Si~5~ with a monoclinic structural deformation variant of the orthorhombic U~2~Co~3~Si~5~-type structure
;
_journal_coden_ASTM                      JCOMAH
_journal_name_full                       'J. Less-Common Met.'
_journal_year                            1987
_journal_volume                          128
_journal_page_first                      125
_journal_page_last                       129
_journal_language                        English
loop_
 _publ_author_name
 _publ_author_address
'Paccard D.'
;
Annecy-le-Vieux Savoie University
Laboratoire de Structure de la Mati\`ere
Annecy-le-Vieux
France
;
'Paccard L.'
;
Annecy-le-Vieux Savoie University
Laboratoire de Structure de la Mati\`ere
Annecy-le-Vieux
France
;

# Standardized crystallographic data

_cell_length_a                           11.045
_cell_length_b                           11.723
_cell_length_c                           5.643
_cell_angle_alpha                        90
_cell_angle_beta                         118.38
_cell_angle_gamma                        90
_cell_volume                             642.8
_cell_formula_units_Z                    4
_space_group_IT_number                   15
_space_group_name_H-M_alt                'C 1 2/c 1'
loop_
 _space_group_symop_id
 _space_group_symop_operation_xyz
 1 'x, y, z'
 2 '-x, -y, -z'
 3 '-x, y, 1/2-z'
 4 'x, -y, 1/2+z'
 5 '1/2+x, 1/2+y, z'
 6 '1/2-x, 1/2-y, -z'
 7 '1/2-x, 1/2+y, 1/2-z'
 8 '1/2+x, 1/2-y, 1/2+z'

# Atomic positions taken from type-defining entry

loop_
 _atom_type_symbol
 Rh
 Dy
 Si
loop_
 _atom_site_label
 _atom_site_type_symbol
 _atom_site_symmetry_multiplicity
 _atom_site_Wyckoff_symbol
 _atom_site_fract_x
 _atom_site_fract_y
 _atom_site_fract_z
 _atom_site_occupancy
 Rh1 Rh 8 f 0.098 0.3592 0.1252 1
 Dy1 Dy 8 f 0.26731 0.13748 0.2649 1
 Si1 Si 8 f 0.3323 0.402 0.33 1
 Rh2 Rh 4 e 0 0.0031 0.25 1
 Si2 Si 4 e 0 0.2134 0.25 1
 Si3 Si 4 e 0 0.5127 0.25 1
 Si4 Si 4 e 0 0.7737 0.25 1


_exptl_crystal_colour                    ?
_exptl_crystal_density_meas              ?
_exptl_crystal_density_diffrn            8.00
_cell_measurement_temperature            293
_cell_measurement_radiation              'X-rays, Mo Ka'
_cell_measurement_reflns_used            22
_diffrn_ambient_temperature              ?
_diffrn_measurement_device               'automatic diffractometer'
_diffrn_measurement_device_type          ?
_diffrn_radiation_type                   ?
_diffrn_reflns_number                    ?
_exptl_absorpt_coefficient_mu            ?
_exptl_absorpt_correction_type           ?
_computing_structure_solution            ?
_refine_ls_number_parameters             ?
_refine_ls_number_reflns                 ?
_refine_ls_R_factor_gt                   ?
_refine_ls_wR_factor_gt                  ?

# End of data set 539566


