##############################################################################
#                                                                            #
# Dy-Ge-H-O        # Dy3GeO5[OH]3                                  # 1000085 #
#                                                                            #
##############################################################################
#                                                                            #
#                           Pearson's Crystal Data                           #
#      Crystal Structure Database for Inorganic Compounds (on DVD)           #
#                              Release 2017/18                               #
#                  Editors: Pierre Villars and Karin Cenzual                 #
#                                                                            #
#   Copyright (c) ASM International & Material Phases Data System (MPDS),    #
# Switzerland & National Institute for Materials Science (NIMS), Japan, 2017 #
#                   All rights reserved. Version 2017.08                     #
#                                                                            #
#   This copy of Pearson's Crystal Data is licensed to:                      #
#   University of Alberta, Chemistry Department, 1-5 Installations License         #
#                                                                            #
##############################################################################

data_1000085
_audit_creation_date                     2017-12-04
_audit_creation_method
;
Pearson's Crystal Data browser
;
#_database_code_PCD                      1000085

# Entry summary

_chemical_formula_structural             'Dy~3~ Ge O~5~ [O H]~3~'
_chemical_formula_sum                    'Dy3 Ge O8'
_chemical_name_mineral                   ?
_chemical_compound_source                ?
_chemical_name_structure_type
Y~3~GeO~5~([OH]~0.5~F~0.5~)~3~,mP24,11                                        
_chemical_formula_weight                 691.1

# Bibliographic data

_publ_section_title
;
Synthesis and atomic structure of crystals of dysprosium germanate, Dy~3~GeO~5~(OH)~3~
;
_journal_coden_ASTM                      SPHCA6
_journal_name_full                       'Sov. Phys. Crystallogr.'
_journal_year                            1987
_journal_volume                          32
_journal_page_first                      517
_journal_page_last                       519
_journal_language                        English
loop_
 _publ_author_name
 _publ_author_address
'Mamin B.F.'
;
Russian Academy of Sciences
Shubnikov A.V. Institute of Crystallography
Moscow
Russia
;
'Khalikov R.A.'
;
Russian Academy of Sciences
Shubnikov A.V. Institute of Crystallography
Moscow
Russia
;
'Demyanets L.N.'
;
Russian Academy of Sciences
Shubnikov A.V. Institute of Crystallography
Moscow
Russia
;
'Golyshev V.M.'
;
Russian Academy of Sciences
Shubnikov A.V. Institute of Crystallography
Moscow
Russia
;
'Shibanova T.A.'
;
Russian Academy of Sciences
Shubnikov A.V. Institute of Crystallography
Moscow
Russia
;

# Standardized crystallographic data

_cell_length_a                           5.481
_cell_length_b                           10.215
_cell_length_c                           5.92
_cell_angle_alpha                        90
_cell_angle_beta                         105.02
_cell_angle_gamma                        90
_cell_volume                             320.1
_cell_formula_units_Z                    2
_space_group_IT_number                   11
_space_group_name_H-M_alt                'P 1 21/m 1'
loop_
 _space_group_symop_id
 _space_group_symop_operation_xyz
 1 'x, y, z'
 2 '-x, -y, -z'
 3 '-x, 1/2+y, -z'
 4 'x, 1/2-y, z'
loop_
 _atom_type_symbol
 O
 Dy
 Ge
loop_
 _atom_site_label
 _atom_site_type_symbol
 _atom_site_symmetry_multiplicity
 _atom_site_Wyckoff_symbol
 _atom_site_fract_x
 _atom_site_fract_y
 _atom_site_fract_z
 _atom_site_occupancy
 O3 O 4 f 0.009 0.126 0.601 1
 O2 O 4 f 0.272 0.518 0.068 1
 O4 O 4 f 0.452 0.13 0.537 1
 Dy2 Dy 4 f 0.6848 0.0456 0.2999 1
 O1 O 2 e 0.048 0.25 0.172 1
 Ge Ge 2 e 0.1915 0.25 0.4781 1
 O5 O 2 e 0.538 0.25 0.093 1
 Dy1 Dy 2 e 0.7757 0.25 0.8124 1


_exptl_crystal_colour                    ?
_exptl_crystal_density_meas              ?
_exptl_crystal_density_diffrn            7.17
_cell_measurement_temperature            ?
_cell_measurement_radiation              'X-rays, Mo Ka'
_cell_measurement_reflns_used            ?
_diffrn_ambient_temperature              ?
_diffrn_measurement_device               'automatic diffractometer'
_diffrn_measurement_device_type          'Enraf-Nonius CAD4F'
_diffrn_radiation_type                   'X-rays, Mo Ka'
_diffrn_reflns_number                    2365
_exptl_absorpt_coefficient_mu            ?
_exptl_absorpt_correction_type           ?
_computing_structure_solution            'Patterson synthesis'
_refine_ls_number_parameters             ?
_refine_ls_number_reflns                 ?
_refine_ls_R_factor_gt                   0.062
_refine_ls_wR_factor_gt                  ?

# End of data set 1000085


