##############################################################################
#                                                                            #
# B-Dy-Ni          # Dy3Ni13B2                                     #  301607 #
#                                                                            #
##############################################################################
#                                                                            #
#                           Pearson's Crystal Data                           #
#      Crystal Structure Database for Inorganic Compounds (on DVD)           #
#                              Release 2017/18                               #
#                  Editors: Pierre Villars and Karin Cenzual                 #
#                                                                            #
#   Copyright (c) ASM International & Material Phases Data System (MPDS),    #
# Switzerland & National Institute for Materials Science (NIMS), Japan, 2017 #
#                   All rights reserved. Version 2017.08                     #
#                                                                            #
#   This copy of Pearson's Crystal Data is licensed to:                      #
#   University of Alberta, Chemistry Department, 1-5 Installations License         #
#                                                                            #
##############################################################################

data_301607
_audit_creation_date                     2017-12-01
_audit_creation_method
;
Pearson's Crystal Data browser
;
#_database_code_PCD                      301607

# Entry summary

_chemical_formula_structural             'Dy~3~ Ni~13~ B~2~'
_chemical_formula_sum                    'B2 Dy3 Ni13'
_chemical_name_mineral                   ?
_chemical_compound_source                ?
_chemical_name_structure_type            Nd~3~Ni~13~B~2~,hP18,191
_chemical_formula_weight                 1272.2

# Bibliographic data

_publ_section_title
'New borides with the Nd~3~Ni~13~B~2~ structure'                              
_journal_coden_ASTM                      INOMAF
_journal_name_full                       'Inorg. Mater.'
_journal_year                            1983
_journal_volume                          19
_journal_page_first                      1555
_journal_page_last                       1556
_journal_language                        English
loop_
 _publ_author_name
 _publ_author_address
'Chernyak G.V.'
;
Lviv Ivan Franko National University
Lviv
Ukraine
;
'Chaban N.F.'
;
Lviv Ivan Franko National University
Lviv
Ukraine
;

# Standardized crystallographic data

_cell_length_a                           4.949
_cell_length_b                           4.949
_cell_length_c                           10.909
_cell_angle_alpha                        90
_cell_angle_beta                         90
_cell_angle_gamma                        120
_cell_volume                             231.4
_cell_formula_units_Z                    1
_space_group_IT_number                   191
_space_group_name_H-M_alt                'P 6/m m m'
loop_
 _space_group_symop_id
 _space_group_symop_operation_xyz
 1 'x, y, z'
 2 '-x+y, -x, -z'
 3 '-x+y, -x, z'
 4 '-x+y, y, -z'
 5 '-x+y, y, z'
 6 '-x, -x+y, -z'
 7 '-x, -x+y, z'
 8 '-x, -y, -z'
 9 '-x, -y, z'
 10 '-y, -x, -z'
 11 '-y, -x, z'
 12 '-y, x-y, -z'
 13 '-y, x-y, z'
 14 'x, x-y, -z'
 15 'x, x-y, z'
 16 'x, y, -z'
 17 'x-y, -y, -z'
 18 'x-y, -y, z'
 19 'x-y, x, -z'
 20 'x-y, x, z'
 21 'y, -x+y, -z'
 22 'y, -x+y, z'
 23 'y, x, -z'
 24 'y, x, z'
loop_
 _atom_type_symbol
 Ni
 Dy
 B
loop_
 _atom_site_label
 _atom_site_type_symbol
 _atom_site_symmetry_multiplicity
 _atom_site_Wyckoff_symbol
 _atom_site_fract_x
 _atom_site_fract_y
 _atom_site_fract_z
 _atom_site_occupancy
 Ni(3) Ni 6 i 0.5 0 0.13 1
 Ni(2) Ni 4 h 0.333333 0.666667 0.322 1
 Ni(1) Ni 3 g 0.5 0 0.5 1
 Dy(2) Dy 2 e 0 0 0.326 1
 B B 2 c 0.333333 0.666667 0 1
 Dy(1) Dy 1 a 0 0 0 1


_exptl_crystal_colour                    ?
_exptl_crystal_density_meas              ?
_exptl_crystal_density_diffrn            9.13
_cell_measurement_temperature            ?
_cell_measurement_radiation              'X-rays, Cr Ka'
_cell_measurement_reflns_used            ?
_diffrn_ambient_temperature              ?
_diffrn_measurement_device               'automatic diffractometer'
_diffrn_measurement_device_type          ?
_diffrn_radiation_type                   'X-rays, Cr Ka'
_diffrn_reflns_number                    ?
_exptl_absorpt_coefficient_mu            ?
_exptl_absorpt_correction_type           ?
_computing_structure_solution            'starting values from the literature'
_refine_ls_number_parameters             ?
_refine_ls_number_reflns                 ?
_refine_ls_R_factor_gt                   0.120
_refine_ls_wR_factor_gt                  ?
_pd_proc_ls_proof_R_factor               ?
_pd_proc_ls_proof_wR_factor              ?
_refine_ls_R_I_factor                    ?

# Published diffraction lines

loop_
 _refln_index_h
 _refln_index_k
 _refln_index_l
 _refln_d_spacing
 _refln_intensity_meas
 1 0 0 4.24 7
 1 0 1 3.98 2
 0 0 3 3.63 6
 1 0 3 2.76 88
 1 1 0 2.46 40
 1 1 1 2.41 2
 1 0 4 2.29 4
 1 1 2 2.25 7
 0 0 5 2.18 13
 2 0 0 2.14 60
 1 1 3 2.04 100
 2 0 2 1.992 15
 1 0 5 1.938 8
 2 0 3 1.864 5
 0 0 6 1.813 20
 2 0 4 1.672 6
 1 1 5 1.633 3
 2 1 1 1.605 1
 2 0 5 1.526 7
 2 1 3 1.474 20
 1 1 6 1.462 16
 3 0 0 1.43 5
 2 0 6 1.385 20
 0 0 8 1.358 2
 3 0 3 1.327 24
 2 1 5 1.302 4
 2 2 0 1.24 25
 2 2 1 1.226 3
 0 0 9 1.209 5
 3 0 5 1.192 6
 3 1 1 1.182 3
 1 0 9 1.161 8
 2 0 8 1.15 11
 3 1 3 1.131 9
 2 2 4 1.127 6
 3 0 6 1.121 9

# End of data set 301607


