##############################################################################
#                                                                            #
# Dy-Ir            # Dy5Ir2                                        #  450534 #
#                                                                            #
##############################################################################
#                                                                            #
#                           Pearson's Crystal Data                           #
#      Crystal Structure Database for Inorganic Compounds (on DVD)           #
#                              Release 2017/18                               #
#                  Editors: Pierre Villars and Karin Cenzual                 #
#                                                                            #
#   Copyright (c) ASM International & Material Phases Data System (MPDS),    #
# Switzerland & National Institute for Materials Science (NIMS), Japan, 2017 #
#                   All rights reserved. Version 2017.08                     #
#                                                                            #
#   This copy of Pearson's Crystal Data is licensed to:                      #
#   University of Alberta, Chemistry Department, 1-5 Installations License         #
#                                                                            #
##############################################################################

data_450534
_audit_creation_date                     2017-12-01
_audit_creation_method
;
Pearson's Crystal Data browser
;
#_database_code_PCD                      450534

# Entry summary

_chemical_formula_structural             'Dy~5~ Ir~2~'
_chemical_formula_sum                    'Dy5 Ir2'
_chemical_name_mineral                   ?
_chemical_compound_source                ?
_chemical_name_structure_type            Mn~5~C~2~,mS28,15
_chemical_formula_weight                 1196.9

# Bibliographic data

_publ_section_title
;
R~5~Ir~2~ compounds (R= Pr, Nd, Sm, Gd, Tb, Dy, Ho, Er, Tm, Lu, Y) with the monoclinic Mn~5~C~2~ structure
;
_journal_coden_ASTM                      JCOMAH
_journal_name_full                       'J. Less-Common Met.'
_journal_year                            1980
_journal_volume                          72
_journal_page_first                      P11
_journal_page_last                       P15
_journal_language                        English
loop_
 _publ_author_name
 _publ_author_address
'Le Roy J.'
;
Annecy-le-Vieux Savoie University
Laboratoire de Structure de la Mati\`ere
Annecy-le-Vieux
France
;
'Paccard D.'
;
Annecy-le-Vieux Savoie University
Laboratoire de Structure de la Mati\`ere
Annecy-le-Vieux
France
;
'Moreau J.M.'
;
Annecy-le-Vieux Savoie University
Laboratoire de Structure de la Mati\`ere
Annecy-le-Vieux
France
;

# Standardized crystallographic data

_cell_length_a                           15.676
_cell_length_b                           6.442
_cell_length_c                           7.197
_cell_angle_alpha                        90
_cell_angle_beta                         96.89
_cell_angle_gamma                        90
_cell_volume                             721.54
_cell_formula_units_Z                    4
_space_group_IT_number                   15
_space_group_name_H-M_alt                'C 1 2/c 1'
loop_
 _space_group_symop_id
 _space_group_symop_operation_xyz
 1 'x, y, z'
 2 '-x, -y, -z'
 3 '-x, y, 1/2-z'
 4 'x, -y, 1/2+z'
 5 '1/2+x, 1/2+y, z'
 6 '1/2-x, 1/2-y, -z'
 7 '1/2-x, 1/2+y, 1/2-z'
 8 '1/2+x, 1/2-y, 1/2+z'

# Atomic positions taken from type-defining entry

loop_
 _atom_type_symbol
 Ir
 Dy
loop_
 _atom_site_label
 _atom_site_type_symbol
 _atom_site_symmetry_multiplicity
 _atom_site_Wyckoff_symbol
 _atom_site_fract_x
 _atom_site_fract_y
 _atom_site_fract_z
 _atom_site_occupancy
 Ir1 Ir 8 f 0.1123 0.1960 0.5743 1
 Dy1 Dy 8 f 0.222 0.096 0.300 1
 Dy2 Dy 8 f 0.401 0.093 0.064 1
 Dy3 Dy 4 e 0 0.091 0.25 1


_exptl_crystal_colour                    ?
_exptl_crystal_density_meas              ?
_exptl_crystal_density_diffrn            11.02
_cell_measurement_temperature            ?
_cell_measurement_radiation              'X-rays, Cu Ka'
_cell_measurement_wavelength             1.5418
_pd_proc_wavelength                      1.5418
_cell_measurement_reflns_used            ?
_diffrn_ambient_temperature              ?
_diffrn_measurement_device               'Guinier film'
_diffrn_measurement_device_type          ?
_diffrn_radiation_type                   ?
_diffrn_reflns_number                    ?
_exptl_absorpt_coefficient_mu            ?
_exptl_absorpt_correction_type           ?
_computing_structure_solution            ?
_refine_ls_number_parameters             ?
_refine_ls_number_reflns                 ?
_refine_ls_R_factor_gt                   ?
_refine_ls_wR_factor_gt                  ?

# End of data set 450534


