##############################################################################
#                                                                            #
# Dy-Ga            # DyGa3 ht1                                     #  450196 #
#                                                                            #
##############################################################################
#                                                                            #
#                           Pearson's Crystal Data                           #
#      Crystal Structure Database for Inorganic Compounds (on DVD)           #
#                              Release 2017/18                               #
#                  Editors: Pierre Villars and Karin Cenzual                 #
#                                                                            #
#   Copyright (c) ASM International & Material Phases Data System (MPDS),    #
# Switzerland & National Institute for Materials Science (NIMS), Japan, 2017 #
#                   All rights reserved. Version 2017.08                     #
#                                                                            #
#   This copy of Pearson's Crystal Data is licensed to:                      #
#   University of Alberta, Chemistry Department, 1-5 Installations License         #
#                                                                            #
##############################################################################

data_450196
_audit_creation_date                     2017-12-01
_audit_creation_method
;
Pearson's Crystal Data browser
;
#_database_code_PCD                      450196

# Entry summary

_chemical_formula_structural             'Dy Ga~3~'
_chemical_formula_sum                    'Dy Ga3'
_chemical_name_mineral                   ?
_chemical_compound_source                ?
_chemical_name_structure_type            Ta(Rh~0.33~Pd~0.67~)~3~,hP40,194
_chemical_formula_weight                 371.7

# Bibliographic data

_publ_section_title
;
Stacking of close-packed AB~3~ Layers in RGa~3~ compounds (R= heavy rare earth)
;
_journal_coden_ASTM                      JCOMAH
_journal_name_full                       'J. Less-Common Met.'
_journal_year                            1981
_journal_volume                          77
_journal_page_first                      269
_journal_page_last                       280
_journal_language                        English
loop_
 _publ_author_name
 _publ_author_address
'Cirafici S.'
;
Genova University
Istituto di Chimica Fisica
Genova
Italy
;
'Franceschi E.A.'
;
Genova University
Istituto di Chimica Fisica
Genova
Italy
;

# Standardized crystallographic data

_cell_length_a                           6.17
_cell_length_b                           6.17
_cell_length_c                           23.035
_cell_angle_alpha                        90
_cell_angle_beta                         90
_cell_angle_gamma                        120
_cell_volume                             759.43
_cell_formula_units_Z                    10
_space_group_IT_number                   194
_space_group_name_H-M_alt                'P 63/m m c'
loop_
 _space_group_symop_id
 _space_group_symop_operation_xyz
 1 'x, y, z'
 2 '-x+y, -x, 1/2-z'
 3 '-x+y, -x, z'
 4 '-x+y, y, 1/2-z'
 5 '-x+y, y, z'
 6 '-x, -x+y, -z'
 7 '-x, -x+y, 1/2+z'
 8 '-x, -y, -z'
 9 '-x, -y, 1/2+z'
 10 '-y, -x, 1/2-z'
 11 '-y, -x, z'
 12 '-y, x-y, 1/2-z'
 13 '-y, x-y, z'
 14 'x, x-y, 1/2-z'
 15 'x, x-y, z'
 16 'x, y, 1/2-z'
 17 'x-y, -y, -z'
 18 'x-y, -y, 1/2+z'
 19 'x-y, x, -z'
 20 'x-y, x, 1/2+z'
 21 'y, -x+y, -z'
 22 'y, -x+y, 1/2+z'
 23 'y, x, -z'
 24 'y, x, 1/2+z'
loop_
 _atom_type_symbol
 Ga
 Dy
loop_
 _atom_site_label
 _atom_site_type_symbol
 _atom_site_symmetry_multiplicity
 _atom_site_Wyckoff_symbol
 _atom_site_fract_x
 _atom_site_fract_y
 _atom_site_fract_z
 _atom_site_occupancy
 Ga(3) Ga 12 k 0.1684 0.3368 0.1495 1
 Ga(2) Ga 12 k 0.156 0.312 0.5514 1
 Ga(1) Ga 6 h 0.4883 -0.0234 0.25 1
 Dy(3) Dy 4 f 0.333333 0.666667 0.0458 1
 Dy(2) Dy 4 f 0.333333 0.666667 0.6512 1
 Dy(1) Dy 2 b 0 0 0.25 1


_exptl_crystal_colour                    ?
_exptl_crystal_density_meas              ?
_exptl_crystal_density_diffrn            8.13
_cell_measurement_temperature            ?
_cell_measurement_radiation              'X-rays, Cu Ka, Fe Ka, Mo Ka'
_cell_measurement_reflns_used            ?
_diffrn_ambient_temperature              ?
_diffrn_measurement_device               ?
_diffrn_measurement_device_type          ?
_diffrn_radiation_type                   ?
_diffrn_reflns_number                    ?
_exptl_absorpt_coefficient_mu            ?
_exptl_absorpt_correction_type           ?
_computing_structure_solution            ?
_refine_ls_number_parameters             ?
_refine_ls_number_reflns                 ?
_refine_ls_R_factor_gt                   ?
_refine_ls_wR_factor_gt                  ?

# End of data set 450196


