##############################################################################
#                                                                            #
# Dy-Mn-O          # DyMn2O5                                       # 1530902 #
#                                                                            #
##############################################################################
#                                                                            #
#                           Pearson's Crystal Data                           #
#      Crystal Structure Database for Inorganic Compounds (on DVD)           #
#                              Release 2017/18                               #
#                  Editors: Pierre Villars and Karin Cenzual                 #
#                                                                            #
#   Copyright (c) ASM International & Material Phases Data System (MPDS),    #
# Switzerland & National Institute for Materials Science (NIMS), Japan, 2017 #
#                   All rights reserved. Version 2017.08                     #
#                                                                            #
#   This copy of Pearson's Crystal Data is licensed to:                      #
#   University of Alberta, Chemistry Department, 1-5 Installations License         #
#                                                                            #
##############################################################################

data_1530902
_audit_creation_date                     2017-12-05
_audit_creation_method
;
Pearson's Crystal Data browser
;
#_database_code_PCD                      1530902

# Entry summary

_chemical_formula_structural             'Dy Mn~2~ O~5~'
_chemical_formula_sum                    'Dy Mn2 O5'
_chemical_name_mineral                   ?
_chemical_compound_source                ?
_chemical_name_structure_type            DyMn~2~O~5~,mP32,6
_chemical_formula_weight                 352.4

# Bibliographic data

_publ_section_title
;
Evidence for room temperature electric polarization in RMn~2~O~5~ multiferroics
;
_journal_coden_ASTM                      PRLTAO
_journal_name_full                       'Phys. Rev. Lett.'
_journal_year                            2015
_journal_volume                          114
_journal_page_first                      1
_journal_page_last                       5
_journal_language                        English
loop_
 _publ_author_name
 _publ_author_address
'Bal\'edent V.'
;
Orsay Paris Sud XI University
Laboratoire de Physique des Solides
Orsay
France
;
'Chattopadhyay S.'
;
Orsay Paris Sud XI University
Laboratoire de Physique des Solides
Orsay
France
;
'Fertey P.'
;
Synchrotron SOLEIL
Gif-sur-Yvette
France
;
'Lepetit M.B.'
;
Centre National de la Recherche Scientifique (CNRS)
Insitut Louis N\'eel
Grenoble
France
;
'Greenblatt M.'
;
Rutgers (New Jersey State) University
Department of Chemistry and Chemical Biology
New Brunswick-Piscataway
U.S.A. New Jersey
;
'Wanklyn B.M.R.'
;
Oxford University
Clarendon Laboratory
Oxford
United Kingdom
;
'Saouma F.O.'
;
Binghamton University of SUNY (New York State University)
Department of Physics, Applied Physics and Astronomy
Binghamton
U.S.A. New York
;
'Jang J.I.'
;
Binghamton University of SUNY (New York State University)
Department of Physics, Applied Physics and Astronomy
Binghamton
U.S.A. New York
;
'Foury Leylekian P.'
;
Orsay Paris Sud XI University
Laboratoire de Physique des Solides
Orsay
France
;

# Standardized crystallographic data

_cell_length_a                           7.2931
_cell_length_b                           5.6743
_cell_length_c                           8.5025
_cell_angle_alpha                        90
_cell_angle_beta                         90.
_cell_angle_gamma                        90
_cell_volume                             351.9
_cell_formula_units_Z                    4
_space_group_IT_number                   6
_space_group_name_H-M_alt                'P 1 m 1'
loop_
 _space_group_symop_id
 _space_group_symop_operation_xyz
 1 'x, y, z'
 2 'x, -y, z'
loop_
 _atom_type_symbol
 O
 Mn
 Dy
loop_
 _atom_site_label
 _atom_site_type_symbol
 _atom_site_symmetry_multiplicity
 _atom_site_Wyckoff_symbol
 _atom_site_fract_x
 _atom_site_fract_y
 _atom_site_fract_z
 _atom_site_occupancy
 O41 O 2 c 0.05023 0.24667 0.26416 1
 O12 O 2 c 0.155 0.22952 0.56385 1
 Mn12 Mn 2 c 0.15514 0.24451 0.06137 1
 O42 O 2 c 0.25357 0.26281 0.8516 1
 O43 O 2 c 0.55075 0.2575 0.35427 1
 O11 O 2 c 0.6551 0.22591 0.06055 1
 Mn11 Mn 2 c 0.65507 0.2445 0.56113 1
 O44 O 2 c 0.76306 0.25371 0.76554 1
 Dy14 Dy 1 b 0.01615 0.5 0.7328 1
 Dy13 Dy 1 b 0.29355 0.5 0.38965 1
 O23 O 1 b 0.31658 0.5 0.11714 1
 O22 O 1 b 0.4874 0.5 0.61568 1
 Dy12 Dy 1 b 0.51585 0.5 0.8898 1
 Dy11 Dy 1 b 0.79376 0.5 0.2329 1
 O21 O 1 b 0.8177 0.5 0.506 1
 O24 O 1 b 0.9956 0.5 0.00553 1
 O34 O 1 a 0.0 0 0.0 1
 Mn21 Mn 1 a 0.06642 0 0.41161 1
 Mn22 Mn 1 a 0.24283 0 0.71118 1
 O33 O 1 a 0.30761 0 0.12369 1
 O32 O 1 a 0.5034 0 0.62784 1
 Mn23 Mn 1 a 0.56661 0 0.21062 1
 Mn24 Mn 1 a 0.74289 0 0.91088 1
 O31 O 1 a 0.80181 0 0.48091 1


_exptl_crystal_colour                    ?
_exptl_crystal_density_meas              ?
_exptl_crystal_density_diffrn            6.65
_cell_measurement_temperature            ?
_cell_measurement_radiation              ?
_cell_measurement_reflns_used            ?
_diffrn_ambient_temperature              300
_diffrn_measurement_device               'automatic diffractometer'
_diffrn_measurement_device_type
'France, Saint-Aubin, SOLEIL Synchrotron Facility, CRISTAL'                   
_diffrn_radiation_type                   'X-rays, synchrotron'
_diffrn_reflns_number                    28763
_diffrn_reflns_theta_min                 0.7
_diffrn_reflns_theta_max                 20.7
_exptl_absorpt_coefficient_mu            ?
_exptl_absorpt_correction_type           ?
_computing_structure_solution
'starting values derived from related structure'                              
_refine_ls_number_parameters             ?
_refine_ls_number_reflns                 ?
_refine_ls_R_factor_gt                   0.0195
_refine_ls_wR_factor_gt                  0.0321

# End of data set 1530902


