##############################################################################
#                                                                            #
# Dy-Mn-O          # DyMnO3 hex                                    #  547558 #
#                                                                            #
##############################################################################
#                                                                            #
#                           Pearson's Crystal Data                           #
#      Crystal Structure Database for Inorganic Compounds (on DVD)           #
#                              Release 2017/18                               #
#                  Editors: Pierre Villars and Karin Cenzual                 #
#                                                                            #
#   Copyright (c) ASM International & Material Phases Data System (MPDS),    #
# Switzerland & National Institute for Materials Science (NIMS), Japan, 2017 #
#                   All rights reserved. Version 2017.08                     #
#                                                                            #
#   This copy of Pearson's Crystal Data is licensed to:                      #
#   University of Alberta, Chemistry Department, 1-5 Installations License         #
#                                                                            #
##############################################################################

data_547558
_audit_creation_date                     2017-12-04
_audit_creation_method
;
Pearson's Crystal Data browser
;
#_database_code_PCD                      547558

# Entry summary

_chemical_formula_structural             'Dy Mn O~3~'
_chemical_formula_sum                    'Dy Mn O3'
_chemical_name_mineral                   ?
_chemical_compound_source                ?
_chemical_name_structure_type            LuMnO~3~,hP30,185
_chemical_formula_weight                 265.4

# Bibliographic data

_publ_section_title
;
Sur l'obtention des manganites lanthanidiques LnMnO~3~
;
_journal_coden_ASTM                      CHDCAQ
_journal_name_full                       'C. R. Seances Acad. Sci., Ser. C'
_journal_year                            1969
_journal_volume                          268
_journal_page_first                      513
_journal_page_last                       516
_journal_language                        French
loop_
 _publ_author_name
 _publ_author_address
'Szabo G.'
;
Grenoble
France
;
'Paris R.A.'
;
Villeurbanne Lyon I Claude Bernard University
Villeurbanne
France
;

# Standardized crystallographic data

_cell_length_a                           6.177
_cell_length_b                           6.177
_cell_length_c                           11.43
_cell_angle_alpha                        90
_cell_angle_beta                         90
_cell_angle_gamma                        120
_cell_volume                             377.7
_cell_formula_units_Z                    6
_space_group_IT_number                   185
_space_group_name_H-M_alt                'P 63 c m'
loop_
 _space_group_symop_id
 _space_group_symop_operation_xyz
 1 'x, y, z'
 2 '-x+y, -x, z'
 3 '-x+y, y, 1/2+z'
 4 '-x, -x+y, z'
 5 '-x, -y, 1/2+z'
 6 '-y, -x, 1/2+z'
 7 '-y, x-y, z'
 8 'x, x-y, 1/2+z'
 9 'x-y, -y, z'
 10 'x-y, x, 1/2+z'
 11 'y, -x+y, 1/2+z'
 12 'y, x, z'

# Atomic positions taken from type-defining entry

loop_
 _atom_type_symbol
 O
 Mn
 Dy
loop_
 _atom_site_label
 _atom_site_type_symbol
 _atom_site_symmetry_multiplicity
 _atom_site_Wyckoff_symbol
 _atom_site_fract_x
 _atom_site_fract_y
 _atom_site_fract_z
 _atom_site_occupancy
 O1 O 6 c 0.307 0 0.10974 1
 Mn1 Mn 6 c 0.3355 0 0.27471 1
 O2 O 6 c 0.3614 0 0.43774 1
 Dy1 Dy 4 b 0.333333 0.666667 0.04356 1
 O3 O 4 b 0.333333 0.666667 0.25494 1
 Dy2 Dy 2 a 0 0 0.0 1
 O4 O 2 a 0 0 0.27054 1


_exptl_crystal_colour                    ?
_exptl_crystal_density_meas              ?
_exptl_crystal_density_diffrn            7.00
_cell_measurement_temperature            ?
_cell_measurement_radiation              'X-rays, Cr Ka'
_cell_measurement_reflns_used            ?
_diffrn_ambient_temperature              ?
_diffrn_measurement_device               film
_diffrn_measurement_device_type          ?
_diffrn_radiation_type                   ?
_diffrn_reflns_number                    ?
_exptl_absorpt_coefficient_mu            ?
_exptl_absorpt_correction_type           ?
_computing_structure_solution            ?
_refine_ls_number_parameters             ?
_refine_ls_number_reflns                 ?
_refine_ls_R_factor_gt                   ?
_refine_ls_wR_factor_gt                  ?

# Published diffraction lines

loop_
 _refln_index_h
 _refln_index_k
 _refln_index_l
 _refln_d_spacing
 _refln_intensity_meas
 0 0 2 56.78 5
 1 0 2 39.2 3
 1 1 0 30.82 7
 1 1 1 29.75 5
 0 0 4 28.49 5
 1 1 2 27.1 8
 1 0 4 25.17 2
 2 0 2 24.17 2
 1 1 4 20.94 7
 2 0 4 19.52 5
 1 1 5 18.35 3
 1 0 6 17.92 3
 3 0 0 17.82 7
 3 0 2 17.02 5
 2 1 4 16.5 3
 1 1 6 16.2 7
 2 2 0 15.44 3
 3 0 4 15.12 7
 2 2 2 14.91 7
 0 0 8 14.3 2
 2 2 4 13.59 7
 2 2 6 12 7
 1 3 6 11.71 5
 1 4 0 11.68 3

# End of data set 547558


