##############################################################################
#                                                                            #
# Er-O-Si          # Er2[Si2O7] mon1                               # 1501466 #
#                                                                            #
##############################################################################
#                                                                            #
#                           Pearson's Crystal Data                           #
#      Crystal Structure Database for Inorganic Compounds (on DVD)           #
#                              Release 2017/18                               #
#                  Editors: Pierre Villars and Karin Cenzual                 #
#                                                                            #
#   Copyright (c) ASM International & Material Phases Data System (MPDS),    #
# Switzerland & National Institute for Materials Science (NIMS), Japan, 2017 #
#                   All rights reserved. Version 2017.08                     #
#                                                                            #
#   This copy of Pearson's Crystal Data is licensed to:                      #
#   University of Alberta, Chemistry Department, 1-5 Installations License         #
#                                                                            #
##############################################################################

data_1501466
_audit_creation_date                     2017-12-05
_audit_creation_method
;
Pearson's Crystal Data browser
;
#_database_code_PCD                      1501466

# Entry summary

_chemical_formula_structural             'Er~2~ [Si~2~ O~7~]'
_chemical_formula_sum                    'Er2 O7 Si2'
_chemical_name_mineral                   ?
_chemical_compound_source                ?
_chemical_name_structure_type            Y~2~[Si~2~O~7~],mP22,14
_chemical_formula_weight                 502.7

# Bibliographic data

_publ_section_title
'The Crystal Structures of the Rare Earth Pyrosilicates'                      
_journal_coden_ASTM                      ACBCAR
_journal_name_full                       'Acta Crystallogr. B'
_journal_year                            1970
_journal_volume                          26
_journal_page_first                      484
_journal_page_last                       492
_journal_language                        English
loop_
 _publ_author_name
 _publ_author_address
'Smolin Y.I.'
;
Russian Academy of Sciences
Institute of Silicate Chemistry
Saint Petersburg
Russia
;
'Shepelev Y.F.'
;
Russian Academy of Sciences
Institute of Silicate Chemistry
Saint Petersburg
Russia
;

# Standardized crystallographic data

_cell_length_a                           4.683
_cell_length_b                           10.79
_cell_length_c                           5.556
_cell_angle_alpha                        90
_cell_angle_beta                         96.
_cell_angle_gamma                        90
_cell_volume                             279.2
_cell_formula_units_Z                    2
_space_group_IT_number                   14
_space_group_name_H-M_alt                'P 1 21/c 1'
loop_
 _space_group_symop_id
 _space_group_symop_operation_xyz
 1 'x, y, z'
 2 '-x, -y, -z'
 3 '-x, 1/2+y, 1/2-z'
 4 'x, 1/2-y, 1/2+z'
loop_
 _atom_type_symbol
 O
 Si
 Er
loop_
 _atom_site_label
 _atom_site_type_symbol
 _atom_site_symmetry_multiplicity
 _atom_site_Wyckoff_symbol
 _atom_site_fract_x
 _atom_site_fract_y
 _atom_site_fract_z
 _atom_site_occupancy
 O4 O 4 e 0.1184 0.2016 0.2522 1
 Si Si 4 e 0.1399 0.6129 0.3558 1
 O2 O 4 e 0.2948 0.5514 0.1347 1
 Er Er 4 e 0.38829 0.34934 0.09318 1
 O3 O 4 e 0.6235 0.3191 0.4583 1
 O1 O 2 a 0 0 0 1


_exptl_crystal_colour                    ?
_exptl_crystal_density_meas              5.85
_exptl_crystal_density_diffrn            5.98
_cell_measurement_temperature            ?
_cell_measurement_radiation              'X-rays, Mo Ka'
_cell_measurement_reflns_used            ?
_diffrn_ambient_temperature              ?
_diffrn_measurement_device               diffractometer
_diffrn_measurement_device_type          ?
_diffrn_radiation_type                   'X-rays, Mo Ka'
_diffrn_reflns_number                    1860
_exptl_absorpt_coefficient_mu            ?
_exptl_absorpt_correction_type           empirical
_computing_structure_solution            'Patterson and Fourier synthesis'
_refine_ls_number_parameters             ?
_refine_ls_number_reflns                 ?
_refine_ls_R_factor_gt                   0.062
_refine_ls_wR_factor_gt                  ?

# End of data set 1501466


