##############################################################################
#                                                                            #
# Co-Er            # Er2Co17 hex                                   #  528247 #
#                                                                            #
##############################################################################
#                                                                            #
#                           Pearson's Crystal Data                           #
#      Crystal Structure Database for Inorganic Compounds (on DVD)           #
#                              Release 2017/18                               #
#                  Editors: Pierre Villars and Karin Cenzual                 #
#                                                                            #
#   Copyright (c) ASM International & Material Phases Data System (MPDS),    #
# Switzerland & National Institute for Materials Science (NIMS), Japan, 2017 #
#                   All rights reserved. Version 2017.08                     #
#                                                                            #
#   This copy of Pearson's Crystal Data is licensed to:                      #
#   University of Alberta, Chemistry Department, 1-5 Installations License         #
#                                                                            #
##############################################################################

data_528247
_audit_creation_date                     2017-12-01
_audit_creation_method
;
Pearson's Crystal Data browser
;
#_database_code_PCD                      528247

# Entry summary

_chemical_formula_structural             'Er~2~ Co~17~'
_chemical_formula_sum                    'Co17 Er2'
_chemical_name_mineral                   ?
_chemical_compound_source                ?
_chemical_name_structure_type            Th~2~Ni~17~,hP38,194
_chemical_formula_weight                 1336.4

# Bibliographic data

_publ_section_title
'Rare Earth Cobalt Compounds with the A~2~B~17~ Structure'                    
_journal_coden_ASTM                      ACCRA9
_journal_name_full                       'Acta Crystallogr.'
_journal_year                            1966
_journal_volume                          21
_journal_page_first                      560
_journal_page_last                       565
_journal_language                        English
loop_
 _publ_author_name
 _publ_author_address
'Ostertag W.'
;
U.S. Air Force Materials
Materials Physics
Tempe
U.S.A. Arizona
;
'Strnat K.J.'
;
U.S. Air Force Materials
Materials Physics
Tempe
U.S.A. Arizona
;

# Standardized crystallographic data

_cell_length_a                           8.301
_cell_length_b                           8.301
_cell_length_c                           8.1
_cell_angle_alpha                        90
_cell_angle_beta                         90
_cell_angle_gamma                        120
_cell_volume                             483.37
_cell_formula_units_Z                    2
_space_group_IT_number                   194
_space_group_name_H-M_alt                'P 63/m m c'
loop_
 _space_group_symop_id
 _space_group_symop_operation_xyz
 1 'x, y, z'
 2 '-x+y, -x, 1/2-z'
 3 '-x+y, -x, z'
 4 '-x+y, y, 1/2-z'
 5 '-x+y, y, z'
 6 '-x, -x+y, -z'
 7 '-x, -x+y, 1/2+z'
 8 '-x, -y, -z'
 9 '-x, -y, 1/2+z'
 10 '-y, -x, 1/2-z'
 11 '-y, -x, z'
 12 '-y, x-y, 1/2-z'
 13 '-y, x-y, z'
 14 'x, x-y, 1/2-z'
 15 'x, x-y, z'
 16 'x, y, 1/2-z'
 17 'x-y, -y, -z'
 18 'x-y, -y, 1/2+z'
 19 'x-y, x, -z'
 20 'x-y, x, 1/2+z'
 21 'y, -x+y, -z'
 22 'y, -x+y, 1/2+z'
 23 'y, x, -z'
 24 'y, x, 1/2+z'
loop_
 _atom_type_symbol
 Co
 Er
loop_
 _atom_site_label
 _atom_site_type_symbol
 _atom_site_symmetry_multiplicity
 _atom_site_Wyckoff_symbol
 _atom_site_fract_x
 _atom_site_fract_y
 _atom_site_fract_z
 _atom_site_occupancy
 CoIV Co 12 k 0.1667 0.3334 0.0 1
 CoIII Co 12 j 0.0 0.3333 0.25 1
 CoII Co 6 g 0.5 0 0 1
 CoI Co 4 f 0.333333 0.666667 0.61 1
 ErII Er 2 c 0.333333 0.666667 0.25 1
 ErI Er 2 b 0 0 0.25 1


_exptl_crystal_colour                    ?
_exptl_crystal_density_meas              9.15
_exptl_crystal_density_diffrn            9.18
_cell_measurement_temperature            ?
_cell_measurement_radiation              'X-rays, Co Ka'
_cell_measurement_wavelength             1.7889
_pd_proc_wavelength                      1.7889
_cell_measurement_reflns_used            ?
_diffrn_ambient_temperature              ?
_diffrn_measurement_device               'Debye-Scherrer film'
_diffrn_measurement_device_type          ?
_diffrn_radiation_type                   ?
_diffrn_reflns_number                    ?
_exptl_absorpt_coefficient_mu            ?
_exptl_absorpt_correction_type           ?
_computing_structure_solution            ?
_refine_ls_number_parameters             ?
_refine_ls_number_reflns                 ?
_refine_ls_R_factor_gt                   ?
_refine_ls_wR_factor_gt                  ?

# Published diffraction lines

loop_
 _refln_index_h
 _refln_index_k
 _refln_index_l
 _refln_d_spacing
 _refln_intensity_meas
 1 0 1 53.67 2
 1 1 0 41.44 1
 1 0 2 35.22 1
 2 0 1 32.82 3
 1 1 2 28.88 5
 2 0 2 26.85 1
 1 2 1 25.74 3
 1 0 3 25.25 3
 3 0 0 23.95 7
 1 2 2 22.56 2
 2 0 3 21.56 5
 2 2 0 20.74 8
 3 0 2 20.6 8
 0 0 4 20.26 6
 1 3 1 19.36 2
 1 2 3 19.14 5
 2 2 2 18.46 5
 1 1 4 18.2 1
 1 3 2 17.89 1
 2 0 4 17.64 1
 4 0 1 17.55 2
 1 2 4 16.25 1
 2 3 1 16.15 1
 1 0 5 15.8 1
 1 4 0 15.69 1
 3 0 4 15.47 4
 2 3 2 15.27 1
 4 0 3 14.95 1
 2 0 5 14.77 1
 1 4 2 14.63 4
 2 2 4 14.5 6
 1 3 4 14.21 1
 5 0 1 14.16 2
 2 3 3 14.08 4
 1 2 5 13.92 2
 3 3 0 13.85 4
 0 0 6 13.51 1
 4 0 4 13.43 1
 2 4 1 13.4 1
 3 3 2 13.1 7
 2 4 2 12.88 1
 1 1 6 12.84 4
 2 3 4 12.76 1
 5 0 3 12.66 1
 1 3 5 12.58 1
 1 5 2 12.3 1
 2 4 3 12.14 4
 4 0 5 12.03 1
 6 0 0 11.98 8

# End of data set 528247


