##############################################################################
#                                                                            #
# Er-Fe-P          # Er2Fe12P7                                     #  459898 #
#                                                                            #
##############################################################################
#                                                                            #
#                           Pearson's Crystal Data                           #
#      Crystal Structure Database for Inorganic Compounds (on DVD)           #
#                              Release 2017/18                               #
#                  Editors: Pierre Villars and Karin Cenzual                 #
#                                                                            #
#   Copyright (c) ASM International & Material Phases Data System (MPDS),    #
# Switzerland & National Institute for Materials Science (NIMS), Japan, 2017 #
#                   All rights reserved. Version 2017.08                     #
#                                                                            #
#   This copy of Pearson's Crystal Data is licensed to:                      #
#   University of Alberta, Chemistry Department, 1-5 Installations License         #
#                                                                            #
##############################################################################

data_459898
_audit_creation_date                     2017-12-01
_audit_creation_method
;
Pearson's Crystal Data browser
;
#_database_code_PCD                      459898

# Entry summary

_chemical_formula_structural             'Er~2~ Fe~12~ P~7~'
_chemical_formula_sum                    'Er2 Fe12 P7'
_chemical_name_mineral                   ?
_chemical_compound_source                ?
_chemical_name_structure_type            Zr~2~Fe~12~P~7~,hP21,174
_chemical_formula_weight                 1221.5

# Bibliographic data

_publ_section_title
'Phosphides with Zr~2~Fe~12~P~7~-Type Structure'                              
_journal_coden_ASTM                      JSSCBI
_journal_name_full                       'J. Solid State Chem.'
_journal_year                            1978
_journal_volume                          25
_journal_page_first                      309
_journal_page_last                       313
_journal_language                        English
loop_
 _publ_author_name
 _publ_author_address
'Jeitschko W.'
;
Giessen Justus Liebig University
Institut f\"ur Anorganische und Analytische Chemie
Giessen
Germany
;
'Braun D.J.'
;
Giessen Justus Liebig University
Institut f\"ur Anorganische und Analytische Chemie
Giessen
Germany
;
'Ashcraft R.H.'
;
Texas Houston Rice University
Department of Chemistry
Houston
U.S.A. Texas
;
'Marchand R.'
;
Rennes I University
Laboratoire de Chimie Min\'erale
Rennes
France
;

# Standardized crystallographic data

_cell_length_a                           9.0978
_cell_length_b                           9.0978
_cell_length_c                           3.6274
_cell_angle_alpha                        90
_cell_angle_beta                         90
_cell_angle_gamma                        120
_cell_volume                             260
_cell_formula_units_Z                    1
_space_group_IT_number                   174
_space_group_name_H-M_alt                'P -6'
loop_
 _space_group_symop_id
 _space_group_symop_operation_xyz
 1 'x, y, z'
 2 '-x+y, -x, -z'
 3 '-x+y, -x, z'
 4 '-y, x-y, -z'
 5 '-y, x-y, z'
 6 'x, y, -z'

# Atomic positions taken from type-defining entry

loop_
 _atom_type_symbol
 Fe
 P
 Er
loop_
 _atom_site_label
 _atom_site_type_symbol
 _atom_site_symmetry_multiplicity
 _atom_site_Wyckoff_symbol
 _atom_site_fract_x
 _atom_site_fract_y
 _atom_site_fract_z
 _atom_site_occupancy
 Fe1 Fe 3 k 0.0495 0.4359 0.5 1
 Fe2 Fe 3 k 0.2232 0.124 0.5 1
 P1 P 3 k 0.2889 0.4096 0.5 1
 Fe3 Fe 3 j 0.1189 0.2772 0 1
 P2 P 3 j 0.4163 0.1204 0 1
 Fe4 Fe 3 j 0.4309 0.3719 0 1
 Er1 Er 1 f 0.666667 0.333333 0.5 1
 Er2 Er 1 c 0.333333 0.666667 0 1
 P3 P 1 a 0 0 0 1


_exptl_crystal_colour                    ?
_exptl_crystal_density_meas              ?
_exptl_crystal_density_diffrn            7.80
_cell_measurement_temperature            ?
_cell_measurement_radiation              X-rays
_cell_measurement_reflns_used            ?
_diffrn_ambient_temperature              ?
_diffrn_measurement_device               'Guinier film'
_diffrn_measurement_device_type          ?
_diffrn_radiation_type                   ?
_diffrn_reflns_number                    ?
_exptl_absorpt_coefficient_mu            ?
_exptl_absorpt_correction_type           ?
_computing_structure_solution            ?
_refine_ls_number_parameters             ?
_refine_ls_number_reflns                 ?
_refine_ls_R_factor_gt                   ?
_refine_ls_wR_factor_gt                  ?

# Published diffraction lines

loop_
 _refln_index_h
 _refln_index_k
 _refln_index_l
 _refln_d_spacing
 _refln_intensity_meas
 1 0 0 79.11 1
 1 1 0 45.49 2
 1 0 1 32.967 3
 2 1 0 29.789 3
 1 1 1 28.342 1
 2 0 1 26.693 3
 3 0 0 26.27 3
 2 1 1 23.005 9
 2 2 0 22.75 3
 1 3 0 21.852 3
 3 0 1 21.252 3
 4 0 0 19.693 3
 2 2 1 19.274 1
 1 3 1 18.718 5
 0 0 2 18.133 7
 2 3 0 18.072 2
 4 1 0 17.193 7
 3 2 1 16.186 5
 2 1 2 15.497 2
 3 3 0 15.166 2
 3 0 2 14.926 2
 5 0 1 14.451 2
 2 2 2 14.179 2
 1 3 2 13.954 2

# End of data set 459898


