##############################################################################
#                                                                            #
# C-Er-Mo          # Er2Mo2C3                                      #  536755 #
#                                                                            #
##############################################################################
#                                                                            #
#                           Pearson's Crystal Data                           #
#      Crystal Structure Database for Inorganic Compounds (on DVD)           #
#                              Release 2017/18                               #
#                  Editors: Pierre Villars and Karin Cenzual                 #
#                                                                            #
#   Copyright (c) ASM International & Material Phases Data System (MPDS),    #
# Switzerland & National Institute for Materials Science (NIMS), Japan, 2017 #
#                   All rights reserved. Version 2017.08                     #
#                                                                            #
#   This copy of Pearson's Crystal Data is licensed to:                      #
#   University of Alberta, Chemistry Department, 1-5 Installations License         #
#                                                                            #
##############################################################################

data_536755
_audit_creation_date                     2017-12-04
_audit_creation_method
;
Pearson's Crystal Data browser
;
#_database_code_PCD                      536755

# Entry summary

_chemical_formula_structural             'Er~2~ Mo~2~ C~3~'
_chemical_formula_sum                    'C3 Er2 Mo2'
_chemical_name_mineral                   ?
_chemical_compound_source                ?
_chemical_name_structure_type            Er~2~Mo~2~C~3~,mS14,12
_chemical_formula_weight                 562.4

# Bibliographic data

_publ_section_title
'Ternary Carbides with Ho~2~Cr~2~C~3~ and UMoC~2~ Type Structure'             
_journal_coden_ASTM                      ZEMTAE
_journal_name_full                       'Z. Metallkd.'
_journal_year                            1986
_journal_volume                          77
_journal_page_first                      788
_journal_page_last                       793
_journal_language                        English
loop_
 _publ_author_name
 _publ_author_address
'Jeitschko W.'
;
M\"unster Westf\"alische Wilhelm University
Institut f\"ur Anorganische Chemie
M\"unster
Germany
;
'Behrens R.K.'
;
M\"unster Westf\"alische Wilhelm University
Institut f\"ur Anorganische Chemie
M\"unster
Germany
;

# Standardized crystallographic data

_cell_length_a                           11.563
_cell_length_b                           3.3104
_cell_length_c                           5.641
_cell_angle_alpha                        90
_cell_angle_beta                         111.24
_cell_angle_gamma                        90
_cell_volume                             201.3
_cell_formula_units_Z                    2
_space_group_IT_number                   12
_space_group_name_H-M_alt                'C 1 2/m 1'
loop_
 _space_group_symop_id
 _space_group_symop_operation_xyz
 1 'x, y, z'
 2 '-x, -y, -z'
 3 '-x, y, -z'
 4 'x, -y, z'
 5 '1/2+x, 1/2+y, z'
 6 '1/2-x, 1/2-y, -z'
 7 '1/2-x, 1/2+y, -z'
 8 '1/2+x, 1/2-y, z'

# Atomic positions taken from type-defining entry

loop_
 _atom_type_symbol
 Mo
 C
 Er
loop_
 _atom_site_label
 _atom_site_type_symbol
 _atom_site_symmetry_multiplicity
 _atom_site_Wyckoff_symbol
 _atom_site_fract_x
 _atom_site_fract_y
 _atom_site_fract_z
 _atom_site_occupancy
 Mo1 Mo 4 i 0.1542 0 0.3269 1
 C1 C 4 i 0.238 0 0.715 1
 Er1 Er 4 i 0.3894 0 0.1729 1
 C2 C 2 a 0 0 0 1


_exptl_crystal_colour                    ?
_exptl_crystal_density_meas              ?
_exptl_crystal_density_diffrn            9.28
_cell_measurement_temperature            ?
_cell_measurement_radiation              'X-rays, Cu Ka1'
_cell_measurement_reflns_used            ?
_diffrn_ambient_temperature              ?
_diffrn_measurement_device               'Guinier film'
_diffrn_measurement_device_type          ?
_diffrn_radiation_type                   ?
_diffrn_reflns_number                    ?
_exptl_absorpt_coefficient_mu            ?
_exptl_absorpt_correction_type           ?
_computing_structure_solution            ?
_refine_ls_number_parameters             ?
_refine_ls_number_reflns                 ?
_refine_ls_R_factor_gt                   ?
_refine_ls_wR_factor_gt                  ?

# Published diffraction lines

loop_
 _refln_index_h
 _refln_index_k
 _refln_index_l
 _refln_d_spacing
 _refln_intensity_meas
 2 0 0 3450 2
 0 0 1 3640 2
 2 0 1 9610 3
 1 1 0 9980 3
 4 0 1 12280 7
 2 0 2 12780 7
 4 0 0 13750 7
 0 0 2 14460 2
 1 1 1 14860 8
 3 1 1 16640 8
 4 0 2 18000 2
 1 1 2 21940 2
 4 0 1 22550 2
 2 0 2 23030 5
 3 1 1 24330 2
 1 1 2 27020 3
 5 1 1 27880 2
 6 0 2 30130 3
 5 1 0 30640 5
 0 0 3 32510 2
 0 2 0 36480 5
 3 1 3 37980 3
 1 1 3 38670 5
 5 1 1 40670 3
 6 0 1 42290 3
 2 0 3 44020 3
 7 1 1 46100 3
 1 1 3 46400 2
 7 1 2 47860 3
 8 0 1 48660 3
 2 2 2 49350 3
 4 2 0 50240 3
 2 0 4 51070 2

# End of data set 536755


