##############################################################################
#                                                                            #
# As-Er-Ni         # Er2Ni12As7                                    #  300253 #
#                                                                            #
##############################################################################
#                                                                            #
#                           Pearson's Crystal Data                           #
#      Crystal Structure Database for Inorganic Compounds (on DVD)           #
#                              Release 2017/18                               #
#                  Editors: Pierre Villars and Karin Cenzual                 #
#                                                                            #
#   Copyright (c) ASM International & Material Phases Data System (MPDS),    #
# Switzerland & National Institute for Materials Science (NIMS), Japan, 2017 #
#                   All rights reserved. Version 2017.08                     #
#                                                                            #
#   This copy of Pearson's Crystal Data is licensed to:                      #
#   University of Alberta, Chemistry Department, 1-5 Installations License         #
#                                                                            #
##############################################################################

data_300253
_audit_creation_date                     2017-12-01
_audit_creation_method
;
Pearson's Crystal Data browser
;
#_database_code_PCD                      300253

# Entry summary

_chemical_formula_structural             'Er~2~ Ni~12~ As~7~'
_chemical_formula_sum                    'As7 Er2 Ni12'
_chemical_name_mineral                   ?
_chemical_compound_source                ?
_chemical_name_structure_type            Zr~2~Fe~12~P~7~,hP21,174
_chemical_formula_weight                 1563.4

# Bibliographic data

_publ_section_title
'Lanthanoid nickel arsenides with the Zr~2~Fe~12~P~7~ structure'              
_journal_coden_ASTM                      JCOMAH
_journal_name_full                       'J. Less-Common Met.'
_journal_year                            1981
_journal_volume                          79
_journal_page_first                      311
_journal_page_last                       314
_journal_language                        English
loop_
 _publ_author_name
 _publ_author_address
'Jeitschko W.'
;
Dortmund Technical University
Fachbereich Chemie
Dortmund
Germany
;
'Jaberg B.'
;
Dortmund Technical University
Fachbereich Chemie
Dortmund
Germany
;

# Standardized crystallographic data

_cell_length_a                           9.344
_cell_length_b                           9.344
_cell_length_c                           3.795
_cell_angle_alpha                        90
_cell_angle_beta                         90
_cell_angle_gamma                        120
_cell_volume                             287
_cell_formula_units_Z                    1
_space_group_IT_number                   174
_space_group_name_H-M_alt                'P -6'
loop_
 _space_group_symop_id
 _space_group_symop_operation_xyz
 1 'x, y, z'
 2 '-x+y, -x, -z'
 3 '-x+y, -x, z'
 4 '-y, x-y, -z'
 5 '-y, x-y, z'
 6 'x, y, -z'

# Atomic positions taken from type-defining entry

loop_
 _atom_type_symbol
 Ni
 As
 Er
loop_
 _atom_site_label
 _atom_site_type_symbol
 _atom_site_symmetry_multiplicity
 _atom_site_Wyckoff_symbol
 _atom_site_fract_x
 _atom_site_fract_y
 _atom_site_fract_z
 _atom_site_occupancy
 Ni1 Ni 3 k 0.0495 0.4359 0.5 1
 Ni2 Ni 3 k 0.2232 0.124 0.5 1
 As1 As 3 k 0.2889 0.4096 0.5 1
 Ni3 Ni 3 j 0.1189 0.2772 0 1
 As2 As 3 j 0.4163 0.1204 0 1
 Ni4 Ni 3 j 0.4309 0.3719 0 1
 Er1 Er 1 f 0.666667 0.333333 0.5 1
 Er2 Er 1 c 0.333333 0.666667 0 1
 As3 As 1 a 0 0 0 1


_exptl_crystal_colour                    black
_exptl_crystal_density_meas              ?
_exptl_crystal_density_diffrn            9.05
_cell_measurement_temperature            ?
_cell_measurement_radiation              'X-rays, Cu Ka'
_cell_measurement_reflns_used            ?
_diffrn_ambient_temperature              ?
_diffrn_measurement_device               'Guinier film'
_diffrn_measurement_device_type          ?
_diffrn_radiation_type                   ?
_diffrn_reflns_number                    ?
_exptl_absorpt_coefficient_mu            ?
_exptl_absorpt_correction_type           ?
_computing_structure_solution            ?
_refine_ls_number_parameters             ?
_refine_ls_number_reflns                 ?
_refine_ls_R_factor_gt                   ?
_refine_ls_wR_factor_gt                  ?

# End of data set 300253


