##############################################################################
#                                                                            #
# Er-S             # Er2S3 mon2                                    #  313272 #
#                                                                            #
##############################################################################
#                                                                            #
#                           Pearson's Crystal Data                           #
#      Crystal Structure Database for Inorganic Compounds (on DVD)           #
#                              Release 2017/18                               #
#                  Editors: Pierre Villars and Karin Cenzual                 #
#                                                                            #
#   Copyright (c) ASM International & Material Phases Data System (MPDS),    #
# Switzerland & National Institute for Materials Science (NIMS), Japan, 2017 #
#                   All rights reserved. Version 2017.08                     #
#                                                                            #
#   This copy of Pearson's Crystal Data is licensed to:                      #
#   University of Alberta, Chemistry Department, 1-5 Installations License         #
#                                                                            #
##############################################################################

data_313272
_audit_creation_date                     2017-12-01
_audit_creation_method
;
Pearson's Crystal Data browser
;
#_database_code_PCD                      313272

# Entry summary

_chemical_formula_structural             'Er~2~ S~3~'
_chemical_formula_sum                    'Er2 S3'
_chemical_name_mineral                   ?
_chemical_compound_source                ?
_chemical_name_structure_type            Ho~2~S~3~,mP30,11
_chemical_formula_weight                 430.7

# Bibliographic data

_publ_section_title
;
Les sulfures Me~2~S~3~ et Me~3~S~4~ des \'el\'ements des terres rares
;
_journal_coden_ASTM                      BSCFAS
_journal_name_full                       'Bull. Soc. Chim. Fr.'
_journal_year                            1960
_journal_volume                          ?
_journal_page_first                      221
_journal_page_last                       228
_journal_language                        French
loop_
 _publ_author_name
 _publ_author_address
'Picon M.'
;
Paris University
Laboratoire de Chimie Min\'erale
Paris
France
;
'Domange L.'
;
Paris University
Laboratoire de Chimie Min\'erale
Paris
France
;
'Flahaut J.'
;
Paris University
Laboratoire de Chimie Min\'erale
Paris
France
;
'Guittard M.'
;
Paris University
Laboratoire de Chimie Min\'erale
Paris
France
;
'Patrie M.'
;
Paris University
Laboratoire de Chimie Min\'erale
Paris
France
;

# Standardized crystallographic data

_cell_length_a                           10.07
_cell_length_b                           4
_cell_length_c                           17.33
_cell_angle_alpha                        90
_cell_angle_beta                         98.7
_cell_angle_gamma                        90
_cell_volume                             690
_cell_formula_units_Z                    6
_space_group_IT_number                   11
_space_group_name_H-M_alt                'P 1 21/m 1'
loop_
 _space_group_symop_id
 _space_group_symop_operation_xyz
 1 'x, y, z'
 2 '-x, -y, -z'
 3 '-x, 1/2+y, -z'
 4 'x, 1/2-y, z'

# Atomic positions taken from type-defining entry

loop_
 _atom_type_symbol
 S
 Er
loop_
 _atom_site_label
 _atom_site_type_symbol
 _atom_site_symmetry_multiplicity
 _atom_site_Wyckoff_symbol
 _atom_site_fract_x
 _atom_site_fract_y
 _atom_site_fract_z
 _atom_site_occupancy
 S1 S 2 e 0.0081 0.25 0.7689 1
 S2 S 2 e 0.0531 0.25 0.0756 1
 Er1 Er 2 e 0.1242 0.25 0.9300 1
 Er2 Er 2 e 0.1872 0.25 0.2203 1
 Er3 Er 2 e 0.1894 0.25 0.5208 1
 S3 S 2 e 0.2683 0.25 0.3731 1
 S4 S 2 e 0.3192 0.25 0.6825 1
 S5 S 2 e 0.3678 0.25 0.0319 1
 Er4 Er 2 e 0.4867 0.25 0.8981 1
 Er5 Er 2 e 0.5494 0.25 0.6156 1
 S6 S 2 e 0.6167 0.25 0.4672 1
 S7 S 2 e 0.6372 0.25 0.7808 1
 S8 S 2 e 0.7108 0.25 0.1306 1
 Er6 Er 2 e 0.8292 0.25 0.2806 1
 S9 S 2 e 0.9506 0.25 0.4239 1


_exptl_crystal_colour                    ?
_exptl_crystal_density_meas              6.07
_exptl_crystal_density_diffrn            6.22
_cell_measurement_temperature            ?
_cell_measurement_radiation              X-rays
_cell_measurement_reflns_used            ?
_diffrn_ambient_temperature              ?
_diffrn_measurement_device               film
_diffrn_measurement_device_type          ?
_diffrn_radiation_type                   ?
_diffrn_reflns_number                    ?
_exptl_absorpt_coefficient_mu            ?
_exptl_absorpt_correction_type           ?
_computing_structure_solution            ?
_refine_ls_number_parameters             ?
_refine_ls_number_reflns                 ?
_refine_ls_R_factor_gt                   ?
_refine_ls_wR_factor_gt                  ?

# End of data set 313272


