##############################################################################
#                                                                            #
# Er-S             # Er2S3 mon1                                    #  451849 #
#                                                                            #
##############################################################################
#                                                                            #
#                           Pearson's Crystal Data                           #
#      Crystal Structure Database for Inorganic Compounds (on DVD)           #
#                              Release 2017/18                               #
#                  Editors: Pierre Villars and Karin Cenzual                 #
#                                                                            #
#   Copyright (c) ASM International & Material Phases Data System (MPDS),    #
# Switzerland & National Institute for Materials Science (NIMS), Japan, 2017 #
#                   All rights reserved. Version 2017.08                     #
#                                                                            #
#   This copy of Pearson's Crystal Data is licensed to:                      #
#   University of Alberta, Chemistry Department, 1-5 Installations License         #
#                                                                            #
##############################################################################

data_451849
_audit_creation_date                     2017-12-01
_audit_creation_method
;
Pearson's Crystal Data browser
;
#_database_code_PCD                      451849

# Entry summary

_chemical_formula_structural             'Er~2~ S~3~'
_chemical_formula_sum                    'Er2 S3'
_chemical_name_mineral                   ?
_chemical_compound_source                ?
_chemical_name_structure_type            Tm~2~S~3~,mP20,11
_chemical_formula_weight                 430.7

# Bibliographic data

_publ_section_title
'Synthesis and crystal structure of F-type erbium sesquisulfide, F-Er~2~S~3~' 
_journal_coden_ASTM                      JALCEU
_journal_name_full                       'J. Alloys Compd.'
_journal_year                            1993
_journal_volume                          201
_journal_page_first                      255
_journal_page_last                       259
_journal_language                        English
loop_
 _publ_author_name
 _publ_author_address
'Fang C.M.'
;
Groningen National University
Department of Chemical Physics
Groningen
Netherlands
;
'Meetsma A.'
;
Groningen National University
Department of Chemical Physics
Groningen
Netherlands
;
'Wiegers G.A.'
;
Groningen National University
Department of Chemical Physics
Groningen
Netherlands
;
'Boom G.'
;
Groningen National University
Department of Applied Physics
Groningen
Netherlands
;

# Standardized crystallographic data

_cell_length_a                           10.901
_cell_length_b                           3.896
_cell_length_c                           11.167
_cell_angle_alpha                        90
_cell_angle_beta                         108.804
_cell_angle_gamma                        90
_cell_volume                             448.95
_cell_formula_units_Z                    4
_space_group_IT_number                   11
_space_group_name_H-M_alt                'P 1 21/m 1'
loop_
 _space_group_symop_id
 _space_group_symop_operation_xyz
 1 'x, y, z'
 2 '-x, -y, -z'
 3 '-x, 1/2+y, -z'
 4 'x, 1/2-y, z'
loop_
 _atom_type_symbol
 Er
 S
loop_
 _atom_site_label
 _atom_site_type_symbol
 _atom_site_symmetry_multiplicity
 _atom_site_Wyckoff_symbol
 _atom_site_fract_x
 _atom_site_fract_y
 _atom_site_fract_z
 _atom_site_occupancy
 Er(3) Er 2 e 0.04472 0.25 0.69083 1
 S(6) S 2 e 0.1115 0.25 0.4628 1
 Er(4) Er 2 e 0.16123 0.25 0.08386 1
 S(2) S 2 e 0.3973 0.25 0.0625 1
 Er(1) Er 2 e 0.43353 0.25 0.83175 1
 S(4) S 2 e 0.4781 0.25 0.6132 1
 Er(2) Er 2 e 0.68296 0.25 0.50287 1
 S(1) S 2 e 0.7446 0.25 0.2762 1
 S(5) S 2 e 0.808 0.25 0.7506 1
 S(3) S 2 e 0.9184 0.25 0.0984 1


_exptl_crystal_colour                    golden
_exptl_crystal_density_meas              ?
_exptl_crystal_density_diffrn            6.37
_cell_measurement_temperature            295
_cell_measurement_radiation              'X-rays, Mo Ka'
_cell_measurement_reflns_used            22
_diffrn_ambient_temperature              ?
_diffrn_measurement_device               'automatic diffractometer'
_diffrn_measurement_device_type          'Enraf-Nonius CAD4'
_diffrn_radiation_type                   'X-rays, Mo Ka'
_diffrn_radiation_wavelength             0.71073
_diffrn_reflns_number                    3768
_diffrn_reflns_theta_min                 1.93
_diffrn_reflns_theta_max                 40
_exptl_absorpt_coefficient_mu            38.79
_exptl_absorpt_correction_type           ?
_computing_structure_solution            'Patterson synthesis'
_refine_ls_number_parameters             62
_refine_ls_number_reflns                 2838
_refine_ls_R_factor_gt                   0.046
_refine_ls_wR_factor_gt                  0.058

# End of data set 451849


