##############################################################################
#                                                                            #
# Er-Ru            # Er5Ru2                                        #  261866 #
#                                                                            #
##############################################################################
#                                                                            #
#                           Pearson's Crystal Data                           #
#      Crystal Structure Database for Inorganic Compounds (on DVD)           #
#                              Release 2017/18                               #
#                  Editors: Pierre Villars and Karin Cenzual                 #
#                                                                            #
#   Copyright (c) ASM International & Material Phases Data System (MPDS),    #
# Switzerland & National Institute for Materials Science (NIMS), Japan, 2017 #
#                   All rights reserved. Version 2017.08                     #
#                                                                            #
#   This copy of Pearson's Crystal Data is licensed to:                      #
#   University of Alberta, Chemistry Department, 1-5 Installations License         #
#                                                                            #
##############################################################################

data_261866
_audit_creation_date                     2017-12-01
_audit_creation_method
;
Pearson's Crystal Data browser
;
#_database_code_PCD                      261866

# Entry summary

_chemical_formula_structural             'Er~5~ Ru~2~'
_chemical_formula_sum                    'Er5 Ru2'
_chemical_name_mineral                   ?
_chemical_compound_source                ?
_chemical_name_structure_type            Mn~5~C~2~,mS28,15
_chemical_formula_weight                 1038.4

# Bibliographic data

_publ_section_title
'Intermediate Phases in Some Rare Earth-Ruthenium Systems'                    
_journal_coden_ASTM                      ZEMTAE
_journal_name_full                       'Z. Metallkd.'
_journal_year                            1984
_journal_volume                          75
_journal_page_first                      801
_journal_page_last                       805
_journal_language                        English
loop_
 _publ_author_name
 _publ_author_address
'Sharifrazi P.'
;
Louisiana Baton Rouge University (and Agricultural and Mechanical College)
Department of Mechanical Engineering
Baton Rouge
U.S.A. Louisiana
;
'Mohanty R.C.'
;
Louisiana Baton Rouge University (and Agricultural and Mechanical College)
Department of Physics
Baton Rouge
U.S.A. Louisiana
;
'Raman A.'
;
Louisiana Baton Rouge University (and Agricultural and Mechanical College)
Department of Mechanical Engineering
Baton Rouge
U.S.A. Louisiana
;

# Standardized crystallographic data

_cell_length_a                           15.472
_cell_length_b                           6.227
_cell_length_c                           7.278
_cell_angle_alpha                        90
_cell_angle_beta                         97.37
_cell_angle_gamma                        90
_cell_volume                             695.4
_cell_formula_units_Z                    4
_space_group_IT_number                   15
_space_group_name_H-M_alt                'C 1 2/c 1'
loop_
 _space_group_symop_id
 _space_group_symop_operation_xyz
 1 'x, y, z'
 2 '-x, -y, -z'
 3 '-x, y, 1/2-z'
 4 'x, -y, 1/2+z'
 5 '1/2+x, 1/2+y, z'
 6 '1/2-x, 1/2-y, -z'
 7 '1/2-x, 1/2+y, 1/2-z'
 8 '1/2+x, 1/2-y, 1/2+z'

# Atomic positions taken from type-defining entry

loop_
 _atom_type_symbol
 Ru
 Er
loop_
 _atom_site_label
 _atom_site_type_symbol
 _atom_site_symmetry_multiplicity
 _atom_site_Wyckoff_symbol
 _atom_site_fract_x
 _atom_site_fract_y
 _atom_site_fract_z
 _atom_site_occupancy
 Ru1 Ru 8 f 0.1123 0.1960 0.5743 1
 Er1 Er 8 f 0.222 0.096 0.300 1
 Er2 Er 8 f 0.401 0.093 0.064 1
 Er3 Er 4 e 0 0.091 0.25 1


_exptl_crystal_colour                    ?
_exptl_crystal_density_meas              ?
_exptl_crystal_density_diffrn            9.92
_cell_measurement_temperature            ?
_cell_measurement_radiation              'X-rays, Cu Ka'
_cell_measurement_reflns_used            ?
_diffrn_ambient_temperature              ?
_diffrn_measurement_device               'Guinier-de Wolff film'
_diffrn_measurement_device_type          ?
_diffrn_radiation_type                   ?
_diffrn_reflns_number                    ?
_exptl_absorpt_coefficient_mu            ?
_exptl_absorpt_correction_type           ?
_computing_structure_solution            ?
_refine_ls_number_parameters             ?
_refine_ls_number_reflns                 ?
_refine_ls_R_factor_gt                   ?
_refine_ls_wR_factor_gt                  ?

# End of data set 261866


