##############################################################################
#                                                                            #
# Er-S             # Er5S7                                         #  526098 #
#                                                                            #
##############################################################################
#                                                                            #
#                           Pearson's Crystal Data                           #
#      Crystal Structure Database for Inorganic Compounds (on DVD)           #
#                              Release 2017/18                               #
#                  Editors: Pierre Villars and Karin Cenzual                 #
#                                                                            #
#   Copyright (c) ASM International & Material Phases Data System (MPDS),    #
# Switzerland & National Institute for Materials Science (NIMS), Japan, 2017 #
#                   All rights reserved. Version 2017.08                     #
#                                                                            #
#   This copy of Pearson's Crystal Data is licensed to:                      #
#   University of Alberta, Chemistry Department, 1-5 Installations License         #
#                                                                            #
##############################################################################

data_526098
_audit_creation_date                     2017-12-01
_audit_creation_method
;
Pearson's Crystal Data browser
;
#_database_code_PCD                      526098

# Entry summary

_chemical_formula_structural             'Er~5~ S~7~'
_chemical_formula_sum                    'Er5 S7'
_chemical_name_mineral                   ?
_chemical_compound_source                ?
_chemical_name_structure_type            Y~5~S~7~,mS24,12
_chemical_formula_weight                 1060.7

# Bibliographic data

_publ_section_title
;
Structure cristalline de FeHo~4~S~7~ et de certains compos\'es isotypes
;
_journal_coden_ASTM                      BUFCAE
_journal_name_full
'Bull. Soc. Fr. Mineral. Cristallogr.'                                        
_journal_year                            1968
_journal_volume                          91
_journal_page_first                      219
_journal_page_last                       232
_journal_language                        French
loop_
 _publ_author_name
 _publ_author_address
'Adolphe C.'
;
Paris V Ren\'e Descartes University
Facult\'e des Sciences
Paris
France
;
'Laruelle P.'
;
Paris University
Facult\'e des Sciences
Paris
France
;

# Standardized crystallographic data

_cell_length_a                           12.67
_cell_length_b                           3.78
_cell_length_c                           11.48
_cell_angle_alpha                        90
_cell_angle_beta                         104.75
_cell_angle_gamma                        90
_cell_volume                             531.69
_cell_formula_units_Z                    2
_space_group_IT_number                   12
_space_group_name_H-M_alt                'C 1 2/m 1'
loop_
 _space_group_symop_id
 _space_group_symop_operation_xyz
 1 'x, y, z'
 2 '-x, -y, -z'
 3 '-x, y, -z'
 4 'x, -y, z'
 5 '1/2+x, 1/2+y, z'
 6 '1/2-x, 1/2-y, -z'
 7 '1/2-x, 1/2+y, -z'
 8 '1/2+x, 1/2-y, z'

# Atomic positions taken from type-defining entry

loop_
 _atom_type_symbol
 S
 Er
loop_
 _atom_site_label
 _atom_site_type_symbol
 _atom_site_symmetry_multiplicity
 _atom_site_Wyckoff_symbol
 _atom_site_fract_x
 _atom_site_fract_y
 _atom_site_fract_z
 _atom_site_occupancy
 S1 S 4 i 0.1593 0 0.551 1
 Er1 Er 4 i 0.1979 0 0.3097 1
 Er2 Er 4 i 0.3873 0 0.0774 1
 S2 S 4 i 0.5401 0 0.2846 1
 S3 S 4 i 0.759 0 0.1476 1
 Er3 Er 2 d 0 0.5 0.5 1
 S4 S 2 a 0 0 0 1


_exptl_crystal_colour                    ?
_exptl_crystal_density_meas              ?
_exptl_crystal_density_diffrn            6.63
_cell_measurement_temperature            ?
_cell_measurement_radiation              X-rays
_cell_measurement_reflns_used            ?
_diffrn_ambient_temperature              ?
_diffrn_measurement_device               ?
_diffrn_measurement_device_type          ?
_diffrn_radiation_type                   ?
_diffrn_reflns_number                    ?
_exptl_absorpt_coefficient_mu            ?
_exptl_absorpt_correction_type           ?
_computing_structure_solution            ?
_refine_ls_number_parameters             ?
_refine_ls_number_reflns                 ?
_refine_ls_R_factor_gt                   ?
_refine_ls_wR_factor_gt                  ?

# End of data set 526098


