##############################################################################
#                                                                            #
# Er-Si            # Er5Si3                                        #  531723 #
#                                                                            #
##############################################################################
#                                                                            #
#                           Pearson's Crystal Data                           #
#      Crystal Structure Database for Inorganic Compounds (on DVD)           #
#                              Release 2017/18                               #
#                  Editors: Pierre Villars and Karin Cenzual                 #
#                                                                            #
#   Copyright (c) ASM International & Material Phases Data System (MPDS),    #
# Switzerland & National Institute for Materials Science (NIMS), Japan, 2017 #
#                   All rights reserved. Version 2017.08                     #
#                                                                            #
#   This copy of Pearson's Crystal Data is licensed to:                      #
#   University of Alberta, Chemistry Department, 1-5 Installations License         #
#                                                                            #
##############################################################################

data_531723
_audit_creation_date                     2017-12-04
_audit_creation_method
;
Pearson's Crystal Data browser
;
#_database_code_PCD                      531723

# Entry summary

_chemical_formula_structural             'Er~5~ Si~3~'
_chemical_formula_sum                    'Er5 Si3'
_chemical_name_mineral                   ?
_chemical_compound_source                ?
_chemical_name_structure_type            Mn~5~Si~3~,hP16,193
_chemical_formula_weight                 920.6

# Bibliographic data

_publ_section_title
'Compounds of the Mn~5~Si~3~ type in alloys of rare-earth metals with silicon'
_journal_coden_ASTM                      INOMAF
_journal_name_full                       'Inorg. Mater.'
_journal_year                            1965
_journal_volume                          1
_journal_page_first                      797
_journal_page_last                       801
_journal_language                        English
loop_
 _publ_author_name
 _publ_author_address
'Gladyshevskii E.I.'
;
Lviv Ivan Franko National University
Department of Inorganic Chemistry
Lviv
Ukraine
;

# Standardized crystallographic data

_cell_length_a                           8.293
_cell_length_b                           8.293
_cell_length_c                           6.207
_cell_angle_alpha                        90
_cell_angle_beta                         90
_cell_angle_gamma                        120
_cell_volume                             369.69
_cell_formula_units_Z                    2
_space_group_IT_number                   193
_space_group_name_H-M_alt                'P 63/m c m'
loop_
 _space_group_symop_id
 _space_group_symop_operation_xyz
 1 'x, y, z'
 2 '-x+y, -x, 1/2-z'
 3 '-x+y, -x, z'
 4 '-x+y, y, -z'
 5 '-x+y, y, 1/2+z'
 6 '-x, -x+y, 1/2-z'
 7 '-x, -x+y, z'
 8 '-x, -y, -z'
 9 '-x, -y, 1/2+z'
 10 '-y, -x, -z'
 11 '-y, -x, 1/2+z'
 12 '-y, x-y, 1/2-z'
 13 '-y, x-y, z'
 14 'x, x-y, -z'
 15 'x, x-y, 1/2+z'
 16 'x, y, 1/2-z'
 17 'x-y, -y, 1/2-z'
 18 'x-y, -y, z'
 19 'x-y, x, -z'
 20 'x-y, x, 1/2+z'
 21 'y, -x+y, -z'
 22 'y, -x+y, 1/2+z'
 23 'y, x, 1/2-z'
 24 'y, x, z'
loop_
 _atom_type_symbol
 Er
 Si
loop_
 _atom_site_label
 _atom_site_type_symbol
 _atom_site_symmetry_multiplicity
 _atom_site_Wyckoff_symbol
 _atom_site_fract_x
 _atom_site_fract_y
 _atom_site_fract_z
 _atom_site_occupancy
 Er(2) Er 6 g 0.24 0 0.25 1
 Si Si 6 g 0.61 0 0.25 1
 Er(1) Er 4 d 0.333333 0.666667 0 1


_exptl_crystal_colour                    ?
_exptl_crystal_density_meas              8.28
_exptl_crystal_density_diffrn            8.27
_cell_measurement_temperature            ?
_cell_measurement_radiation              'X-rays, Cr Ka'
_cell_measurement_reflns_used            ?
_diffrn_ambient_temperature              ?
_diffrn_measurement_device               'Debye-Scherrer film'
_diffrn_measurement_device_type          ?
_diffrn_radiation_type                   'X-rays, Cr Ka'
_diffrn_reflns_number                    ?
_exptl_absorpt_coefficient_mu            ?
_exptl_absorpt_correction_type           ?
_computing_structure_solution            'starting values from the literature'
_refine_ls_number_parameters             ?
_refine_ls_number_reflns                 ?
_refine_ls_R_factor_gt                   ?
_refine_ls_wR_factor_gt                  ?
_pd_proc_ls_proof_R_factor               ?
_pd_proc_ls_proof_wR_factor              ?
_refine_ls_R_I_factor                    ?

# Published diffraction lines

loop_
 _refln_index_h
 _refln_index_k
 _refln_index_l
 _refln_d_spacing
 _refln_intensity_meas
 1 1 0 41.4 5
 2 0 0 35.9 10
 1 1 1 34.5 20
 0 0 2 31.1 5
 1 0 2 28.5 30
 2 1 0 27.1 30
 2 1 1 24.8 100
 3 0 0 23.9 20
 2 2 0 20.7 5
 2 2 1 19.7 5
 3 1 1 18.98 5
 1 1 3 18.55 5
 4 0 0 17.95 5
 2 2 2 17.24 30
 3 1 2 16.78 20
 3 2 0 16.47 40
 3 2 1 15.93 20
 4 1 0 15.68 20
 4 0 2 15.54 50
 2 2 3 14.64 5
 3 2 2 14.55 5
 5 0 0 14.35 5
 2 0 4 14.24 10
 4 1 2 13.99 5
 4 2 0 13.57 20
 3 3 1 13.48 50
 5 0 2 13.03 70
 5 1 0 12.89 40
 5 1 1 12.62 70
 4 2 2 12.43 5
 6 0 0 11.96 10
 5 1 2 11.89 20
 4 3 0 11.8 5
 4 0 4 11.74 30
 4 3 1 11.6 10

# End of data set 531723


