##############################################################################
#                                                                            #
# As-Er-S          # ErAsS                                         #  460740 #
#                                                                            #
##############################################################################
#                                                                            #
#                           Pearson's Crystal Data                           #
#      Crystal Structure Database for Inorganic Compounds (on DVD)           #
#                              Release 2017/18                               #
#                  Editors: Pierre Villars and Karin Cenzual                 #
#                                                                            #
#   Copyright (c) ASM International & Material Phases Data System (MPDS),    #
# Switzerland & National Institute for Materials Science (NIMS), Japan, 2017 #
#                   All rights reserved. Version 2017.08                     #
#                                                                            #
#   This copy of Pearson's Crystal Data is licensed to:                      #
#   University of Alberta, Chemistry Department, 1-5 Installations License         #
#                                                                            #
##############################################################################

data_460740
_audit_creation_date                     2017-12-01
_audit_creation_method
;
Pearson's Crystal Data browser
;
#_database_code_PCD                      460740

# Entry summary

_chemical_formula_structural             'Er As S'
_chemical_formula_sum                    'As Er S'
_chemical_name_mineral                   ?
_chemical_compound_source                ?
_chemical_name_structure_type            CeAsS,mP12,14
_chemical_formula_weight                 274.2

# Bibliographic data

_publ_section_title
;
Le sulfoars\'eniure de c\'erium CeAsS et ses homologues avec les lanthanides et l'yttrium
;
_journal_coden_ASTM                      JCOMAH
_journal_name_full                       'J. Less-Common Met.'
_journal_year                            1977
_journal_volume                          53
_journal_page_first                      137
_journal_page_last                       140
_journal_language                        French
loop_
 _publ_author_name
 _publ_author_address
'C\'eolin R.'
;
Chatenay-Malabry Paris Sud XI University
Laboratoire de Chimie Min\'erale
Chatenay-Malabry
France
;
'Rodier N.'
;
Chatenay-Malabry Paris Sud XI University
Laboratoire de Chimie Min\'erale
Chatenay-Malabry
France
;
'Khodadad P.'
;
Chatenay-Malabry Paris Sud XI University
Laboratoire de Chimie Min\'erale
Chatenay-Malabry
France
;

# Standardized crystallographic data

_cell_length_a                           3.7636
_cell_length_b                           16.63
_cell_length_c                           5.36
_cell_angle_alpha                        90
_cell_angle_beta                         134.242
_cell_angle_gamma                        90
_cell_volume                             240.3
_cell_formula_units_Z                    4
_space_group_IT_number                   14
_space_group_name_H-M_alt                'P 1 21/c 1'
loop_
 _space_group_symop_id
 _space_group_symop_operation_xyz
 1 'x, y, z'
 2 '-x, -y, -z'
 3 '-x, 1/2+y, 1/2-z'
 4 'x, 1/2-y, 1/2+z'

# Atomic positions taken from type-defining entry

loop_
 _atom_type_symbol
 Er
 S
 As
loop_
 _atom_site_label
 _atom_site_type_symbol
 _atom_site_symmetry_multiplicity
 _atom_site_Wyckoff_symbol
 _atom_site_fract_x
 _atom_site_fract_y
 _atom_site_fract_z
 _atom_site_occupancy
 Er1 Er 4 e 0.0216 0.3544 0.2718 1
 S1 S 4 e 0.0224 0.1859 0.2714 1
 As1 As 4 e 0.543 0.0019 0.297 1


_exptl_crystal_colour                    ?
_exptl_crystal_density_meas              ?
_exptl_crystal_density_diffrn            7.58
_cell_measurement_temperature            ?
_cell_measurement_radiation              X-rays
_cell_measurement_reflns_used            ?
_diffrn_ambient_temperature              ?
_diffrn_measurement_device               'Debye-Scherrer film'
_diffrn_measurement_device_type          ?
_diffrn_radiation_type                   ?
_diffrn_reflns_number                    ?
_exptl_absorpt_coefficient_mu            ?
_exptl_absorpt_correction_type           ?
_computing_structure_solution            ?
_refine_ls_number_parameters             ?
_refine_ls_number_reflns                 ?
_refine_ls_R_factor_gt                   ?
_refine_ls_wR_factor_gt                  ?

# End of data set 460740


