##############################################################################
#                                                                            #
# B-Er-Fe          # ErFe4B                                        #  538457 #
#                                                                            #
##############################################################################
#                                                                            #
#                           Pearson's Crystal Data                           #
#      Crystal Structure Database for Inorganic Compounds (on DVD)           #
#                              Release 2017/18                               #
#                  Editors: Pierre Villars and Karin Cenzual                 #
#                                                                            #
#   Copyright (c) ASM International & Material Phases Data System (MPDS),    #
# Switzerland & National Institute for Materials Science (NIMS), Japan, 2017 #
#                   All rights reserved. Version 2017.08                     #
#                                                                            #
#   This copy of Pearson's Crystal Data is licensed to:                      #
#   University of Alberta, Chemistry Department, 1-5 Installations License         #
#                                                                            #
##############################################################################

data_538457
_audit_creation_date                     2017-12-04
_audit_creation_method
;
Pearson's Crystal Data browser
;
#_database_code_PCD                      538457

# Entry summary

_chemical_formula_structural             'Er Fe~4~ B'
_chemical_formula_sum                    'B Er Fe4'
_chemical_name_mineral                   ?
_chemical_compound_source                ?
_chemical_name_structure_type            CeCo~4~B,hP12,191
_chemical_formula_weight                 401.5

# Bibliographic data

_publ_section_title
'^57^Fe M\"ossbauer and magnetic studies of RFe~4~B (R= Tm, Er) alloys'       
_journal_coden_ASTM                      JMMMDC
_journal_name_full                       'J. Magn. Magn. Mater.'
_journal_year                            1988
_journal_volume                          75
_journal_page_first                      91
_journal_page_last                       97
_journal_language                        English
loop_
 _publ_author_name
 _publ_author_address
'Zouganelis G.'
;
National Center for Scientific Research Demokritos
Aghia Paraskevi
Greece
;
'Kostikas A.'
;
National Center for Scientific Research Demokritos
Aghia Paraskevi
Greece
;
'Simopoulos A.'
;
National Center for Scientific Research Demokritos
Aghia Paraskevi
Greece
;
'Niarchos D.G.'
;
National Center for Scientific Research Demokritos
Aghia Paraskevi
Greece
;

# Standardized crystallographic data

_cell_length_a                           5.047
_cell_length_b                           5.047
_cell_length_c                           6.998
_cell_angle_alpha                        90
_cell_angle_beta                         90
_cell_angle_gamma                        120
_cell_volume                             154.4
_cell_formula_units_Z                    2
_space_group_IT_number                   191
_space_group_name_H-M_alt                'P 6/m m m'
loop_
 _space_group_symop_id
 _space_group_symop_operation_xyz
 1 'x, y, z'
 2 '-x+y, -x, -z'
 3 '-x+y, -x, z'
 4 '-x+y, y, -z'
 5 '-x+y, y, z'
 6 '-x, -x+y, -z'
 7 '-x, -x+y, z'
 8 '-x, -y, -z'
 9 '-x, -y, z'
 10 '-y, -x, -z'
 11 '-y, -x, z'
 12 '-y, x-y, -z'
 13 '-y, x-y, z'
 14 'x, x-y, -z'
 15 'x, x-y, z'
 16 'x, y, -z'
 17 'x-y, -y, -z'
 18 'x-y, -y, z'
 19 'x-y, x, -z'
 20 'x-y, x, z'
 21 'y, -x+y, -z'
 22 'y, -x+y, z'
 23 'y, x, -z'
 24 'y, x, z'
loop_
 _atom_type_symbol
 Fe
 B
 Er
loop_
 _atom_site_label
 _atom_site_type_symbol
 _atom_site_symmetry_multiplicity
 _atom_site_Wyckoff_symbol
 _atom_site_fract_x
 _atom_site_fract_y
 _atom_site_fract_z
 _atom_site_occupancy
 Fe2 Fe 6 i 0.5 0 0.213 1
 Fe1 Fe 2 d 0.333333 0.666667 0.5 1
 B B 2 c 0.333333 0.666667 0 1
 Er1 Er 1 b 0 0 0.5 1
 Er2 Er 1 a 0 0 0 1


_exptl_crystal_colour                    ?
_exptl_crystal_density_meas              ?
_exptl_crystal_density_diffrn            8.64
_cell_measurement_temperature            ?
_cell_measurement_radiation              'X-rays, Co Ka'
_cell_measurement_wavelength             1.791
_pd_proc_wavelength                      1.791
_cell_measurement_reflns_used            ?
_diffrn_ambient_temperature              ?
_diffrn_measurement_device               'automatic diffractometer'
_diffrn_measurement_device_type          Philips
_diffrn_radiation_type                   'X-rays, Co Ka'
_diffrn_radiation_wavelength             1.791
_diffrn_reflns_number                    ?
_exptl_absorpt_coefficient_mu            ?
_exptl_absorpt_correction_type           ?
_computing_structure_solution            'starting values from the literature'
_refine_ls_number_parameters             ?
_refine_ls_number_reflns                 ?
_refine_ls_R_factor_gt                   ?
_refine_ls_wR_factor_gt                  ?
_pd_proc_ls_proof_R_factor               0.1481
_pd_proc_ls_proof_wR_factor              0.066
_refine_ls_R_I_factor                    ?

# Published diffraction lines

loop_
 _refln_index_h
 _refln_index_k
 _refln_index_l
 _refln_d_spacing
 _refln_intensity_meas
 1 0 0 43.68 28.5
 1 0 2 27.32 97.7
 1 1 0 25.24 44.0
 1 1 1 23.75 0.0
 0 0 3 23.34 0.0
 2 0 0 21.91 61.5
 2 0 1 20.87 1.9
 1 1 2 20.48 100.0
 0 0 4 17.49 10.4
 1 0 4 16.24 5.1
 2 0 3 15.96 0.0
 2 1 2 14.93 24.8
 3 0 0 14.57 6.0
 1 1 4 14.39 14.3

# End of data set 538457


