##############################################################################
#                                                                            #
# B-Er-Fe          # ErFe4B                                        # 1010673 #
#                                                                            #
##############################################################################
#                                                                            #
#                           Pearson's Crystal Data                           #
#      Crystal Structure Database for Inorganic Compounds (on DVD)           #
#                              Release 2017/18                               #
#                  Editors: Pierre Villars and Karin Cenzual                 #
#                                                                            #
#   Copyright (c) ASM International & Material Phases Data System (MPDS),    #
# Switzerland & National Institute for Materials Science (NIMS), Japan, 2017 #
#                   All rights reserved. Version 2017.08                     #
#                                                                            #
#   This copy of Pearson's Crystal Data is licensed to:                      #
#   University of Alberta, Chemistry Department, 1-5 Installations License         #
#                                                                            #
##############################################################################

data_1010673
_audit_creation_date                     2017-12-04
_audit_creation_method
;
Pearson's Crystal Data browser
;
#_database_code_PCD                      1010673

# Entry summary

_chemical_formula_structural             'Er Fe~4~ B'
_chemical_formula_sum                    'B Er Fe4'
_chemical_name_mineral                   ?
_chemical_compound_source                ?
_chemical_name_structure_type            CeCo~4~B,hP12,191
_chemical_formula_weight                 401.5

# Bibliographic data

_publ_section_title                      'Ternary systems (Dy,Er)-Fe-B'
_journal_coden_ASTM                      SPMCAV
_journal_name_full                       'Sov. Powder Metall. Met. Ceram.'
_journal_year                            1983
_journal_volume                          22
_journal_page_first                      479
_journal_page_last                       480
_journal_language                        English
loop_
 _publ_author_name
 _publ_author_address
'Chernyak G.V.'
;
Lviv Ivan Franko National University
Lviv
Ukraine
;
'Chaban N.F.'
;
Lviv Ivan Franko National University
Lviv
Ukraine
;
'Kuz'ma Y.B.'
;
Lviv Ivan Franko National University
Lviv
Ukraine
;

# Standardized crystallographic data

_cell_length_a                           5.033
_cell_length_b                           5.033
_cell_length_c                           6.985
_cell_angle_alpha                        90
_cell_angle_beta                         90
_cell_angle_gamma                        120
_cell_volume                             153.2
_cell_formula_units_Z                    2
_space_group_IT_number                   191
_space_group_name_H-M_alt                'P 6/m m m'
loop_
 _space_group_symop_id
 _space_group_symop_operation_xyz
 1 'x, y, z'
 2 '-x+y, -x, -z'
 3 '-x+y, -x, z'
 4 '-x+y, y, -z'
 5 '-x+y, y, z'
 6 '-x, -x+y, -z'
 7 '-x, -x+y, z'
 8 '-x, -y, -z'
 9 '-x, -y, z'
 10 '-y, -x, -z'
 11 '-y, -x, z'
 12 '-y, x-y, -z'
 13 '-y, x-y, z'
 14 'x, x-y, -z'
 15 'x, x-y, z'
 16 'x, y, -z'
 17 'x-y, -y, -z'
 18 'x-y, -y, z'
 19 'x-y, x, -z'
 20 'x-y, x, z'
 21 'y, -x+y, -z'
 22 'y, -x+y, z'
 23 'y, x, -z'
 24 'y, x, z'

# Atomic positions taken from type-defining entry

loop_
 _atom_type_symbol
 Fe
 B
 Er
loop_
 _atom_site_label
 _atom_site_type_symbol
 _atom_site_symmetry_multiplicity
 _atom_site_Wyckoff_symbol
 _atom_site_fract_x
 _atom_site_fract_y
 _atom_site_fract_z
 _atom_site_occupancy
 Fe1 Fe 6 i 0.5 0 0.213 1
 Fe2 Fe 2 d 0.333333 0.666667 0.5 1
 B1 B 2 c 0.333333 0.666667 0 1
 Er1 Er 1 b 0 0 0.5 1
 Er2 Er 1 a 0 0 0 1


_exptl_crystal_colour                    ?
_exptl_crystal_density_meas              ?
_exptl_crystal_density_diffrn            8.70
_cell_measurement_temperature            ?
_cell_measurement_radiation              'X-rays, Cr K'
_cell_measurement_reflns_used            ?
_diffrn_ambient_temperature              ?
_diffrn_measurement_device               'Debye-Scherrer film'
_diffrn_measurement_device_type          ?
_diffrn_radiation_type                   ?
_diffrn_reflns_number                    ?
_exptl_absorpt_coefficient_mu            ?
_exptl_absorpt_correction_type           ?
_computing_structure_solution            ?
_refine_ls_number_parameters             ?
_refine_ls_number_reflns                 ?
_refine_ls_R_factor_gt                   ?
_refine_ls_wR_factor_gt                  ?

# End of data set 1010673


