##############################################################################
#                                                                            #
# Er-Mn-O          # ErMnO3                                        # 1502735 #
#                                                                            #
##############################################################################
#                                                                            #
#                           Pearson's Crystal Data                           #
#      Crystal Structure Database for Inorganic Compounds (on DVD)           #
#                              Release 2017/18                               #
#                  Editors: Pierre Villars and Karin Cenzual                 #
#                                                                            #
#   Copyright (c) ASM International & Material Phases Data System (MPDS),    #
# Switzerland & National Institute for Materials Science (NIMS), Japan, 2017 #
#                   All rights reserved. Version 2017.08                     #
#                                                                            #
#   This copy of Pearson's Crystal Data is licensed to:                      #
#   University of Alberta, Chemistry Department, 1-5 Installations License         #
#                                                                            #
##############################################################################

data_1502735
_audit_creation_date                     2017-12-05
_audit_creation_method
;
Pearson's Crystal Data browser
;
#_database_code_PCD                      1502735

# Entry summary

_chemical_formula_structural             'Er Mn O~3~'
_chemical_formula_sum                    'Er Mn O3'
_chemical_name_mineral                   ?
_chemical_compound_source                ?
_chemical_name_structure_type            LuMnO~3~,hP30,185
_chemical_formula_weight                 270.2

# Bibliographic data

_publ_section_title
;
On the Crystal Structure of the Manganese(III) Trioxides of the Heavy Lanthanides and Yttrium
;
_journal_coden_ASTM                      ACCRA9
_journal_name_full                       'Acta Crystallogr.'
_journal_year                            1963
_journal_volume                          16
_journal_page_first                      957
_journal_page_last                       962
_journal_language                        English
loop_
 _publ_author_name
 _publ_author_address
'Yakel H.L. Jr.'
;
Oak Ridge National Laboratory
Oak Ridge
U.S.A. Tennessee
;
'Koehler W.C.'
;
Oak Ridge National Laboratory
Oak Ridge
U.S.A. Tennessee
;
'Bertaut E.F.'
;
Grenoble Joseph Fourier Institute
Laboratoire d'Electrostatique et de Physique du M\'etal
Grenoble
France
;
'Forrat E.F.'
;
Grenoble Joseph Fourier Institute
Laboratoire d'Electrostatique et de Physique du M\'etal
Grenoble
France
;

# Standardized crystallographic data

_cell_length_a                           6.115
_cell_length_b                           6.115
_cell_length_c                           11.41
_cell_angle_alpha                        90
_cell_angle_beta                         90
_cell_angle_gamma                        120
_cell_volume                             369.5
_cell_formula_units_Z                    6
_space_group_IT_number                   185
_space_group_name_H-M_alt                'P 63 c m'
loop_
 _space_group_symop_id
 _space_group_symop_operation_xyz
 1 'x, y, z'
 2 '-x+y, -x, z'
 3 '-x+y, y, 1/2+z'
 4 '-x, -x+y, z'
 5 '-x, -y, 1/2+z'
 6 '-y, -x, 1/2+z'
 7 '-y, x-y, z'
 8 'x, x-y, 1/2+z'
 9 'x-y, -y, z'
 10 'x-y, x, 1/2+z'
 11 'y, -x+y, 1/2+z'
 12 'y, x, z'

# Atomic positions taken from type-defining entry

loop_
 _atom_type_symbol
 O
 Mn
 Er
loop_
 _atom_site_label
 _atom_site_type_symbol
 _atom_site_symmetry_multiplicity
 _atom_site_Wyckoff_symbol
 _atom_site_fract_x
 _atom_site_fract_y
 _atom_site_fract_z
 _atom_site_occupancy
 O1 O 6 c 0.307 0 0.10974 1
 Mn1 Mn 6 c 0.3355 0 0.27471 1
 O2 O 6 c 0.3614 0 0.43774 1
 Er1 Er 4 b 0.333333 0.666667 0.04356 1
 O3 O 4 b 0.333333 0.666667 0.25494 1
 Er2 Er 2 a 0 0 0.0 1
 O4 O 2 a 0 0 0.27054 1


_exptl_crystal_colour                    'red blackish'
_exptl_crystal_density_meas              7.20(3)
_exptl_crystal_density_diffrn            7.29
_cell_measurement_temperature            ?
_cell_measurement_radiation              'X-rays, Cu Ka, Fe Ka'
_cell_measurement_wavelength             1.5418
_pd_proc_wavelength                      1.5418
_cell_measurement_reflns_used            ?
_diffrn_ambient_temperature              ?
_diffrn_measurement_device               'Debye-Scherrer film'
_diffrn_measurement_device_type          ?
_diffrn_radiation_type                   ?
_diffrn_reflns_number                    ?
_exptl_absorpt_coefficient_mu            ?
_exptl_absorpt_correction_type           ?
_computing_structure_solution            ?
_refine_ls_number_parameters             ?
_refine_ls_number_reflns                 ?
_refine_ls_R_factor_gt                   ?
_refine_ls_wR_factor_gt                  ?

# Published diffraction lines

loop_
 _refln_index_h
 _refln_index_k
 _refln_index_l
 _refln_d_spacing
 _refln_intensity_meas
 0 0 2 55.67 5
 1 0 2 38.33 3
 1 1 0 30.39 5.5
 1 1 1 29.37 5
 0 0 4 28.37 5
 1 1 2 26.82 7
 1 0 4 24.97 3
 2 0 2 23.9 2
 1 1 4 20.79 7
 2 0 4 19.36 5
 2 1 2 18.83 3
 1 1 5 18.23 3
 1 0 6 17.84 3
 3 0 0 17.59 7
 3 0 2 16.82 5.5
 2 1 4 16.34 3
 1 1 6 16.1 7
 2 0 6 15.41 3
 2 2 0 15.26 3
 3 0 4 14.98 7
 2 2 2 14.73 7
 2 1 6 13.77 7
 2 2 4 13.47 7
 1 3 4 13.04 3
 1 1 8 12.91 5.5
 2 0 8 12.54 5
 2 2 6 11.9 7
 1 3 6 11.61 7
 1 4 0 11.54 5.5
 1 4 2 11.32 7
 1 0 10 11.15 5
 3 0 8 11.09 5
 4 0 6 10.86 3
 1 4 4 10.7 7
 2 0 10 10.47 3
 2 2 8 10.42 3
 3 2 6 10.23 7
 3 3 0 10.19 7
 3 3 2 10.03 5
 2 1 10 9.91 5.5
 4 1 6 9.87 7

# End of data set 1502735


