##############################################################################
#                                                                            #
# Er-H-O           # ErO[OH]                                       #  548415 #
#                                                                            #
##############################################################################
#                                                                            #
#                           Pearson's Crystal Data                           #
#      Crystal Structure Database for Inorganic Compounds (on DVD)           #
#                              Release 2017/18                               #
#                  Editors: Pierre Villars and Karin Cenzual                 #
#                                                                            #
#   Copyright (c) ASM International & Material Phases Data System (MPDS),    #
# Switzerland & National Institute for Materials Science (NIMS), Japan, 2017 #
#                   All rights reserved. Version 2017.08                     #
#                                                                            #
#   This copy of Pearson's Crystal Data is licensed to:                      #
#   University of Alberta, Chemistry Department, 1-5 Installations License         #
#                                                                            #
##############################################################################

data_548415
_audit_creation_date                     2017-12-04
_audit_creation_method
;
Pearson's Crystal Data browser
;
#_database_code_PCD                      548415

# Entry summary

_chemical_formula_structural             'Er O [O H]'
_chemical_formula_sum                    'Er H O2'
_chemical_name_mineral                   ?
_chemical_compound_source                ?
_chemical_name_structure_type            YO[OH],mP6,11
_chemical_formula_weight                 200.3

# Bibliographic data

_publ_section_title
'The magnetic structure of the monoclinic modification of ErOOH'              
_journal_coden_ASTM                      SSCOA4
_journal_name_full                       'Solid State Commun.'
_journal_year                            1972
_journal_volume                          10
_journal_page_first                      765
_journal_page_last                       767
_journal_language                        English
loop_
 _publ_author_name
 _publ_author_address
'Christensen A.N.'
;
\%Arhus University
Department of Inorganic Chemistry
\%Arhus
Denmark
;
'Qu\'ezel S.'
;
Centre d'Etudes Nucl\'eaires
Laboratoire de Diffraction Neutronique
Grenoble
France
;

# Standardized crystallographic data

_cell_length_a                           4.3
_cell_length_b                           3.65
_cell_length_c                           5.95
_cell_angle_alpha                        90
_cell_angle_beta                         109.1
_cell_angle_gamma                        90
_cell_volume                             88.2
_cell_formula_units_Z                    2
_space_group_IT_number                   11
_space_group_name_H-M_alt                'P 1 21/m 1'
loop_
 _space_group_symop_id
 _space_group_symop_operation_xyz
 1 'x, y, z'
 2 '-x, -y, -z'
 3 '-x, 1/2+y, -z'
 4 'x, 1/2-y, z'
loop_
 _atom_type_symbol
 O
 Er
 H
loop_
 _atom_site_label
 _atom_site_type_symbol
 _atom_site_symmetry_multiplicity
 _atom_site_Wyckoff_symbol
 _atom_site_fract_x
 _atom_site_fract_y
 _atom_site_fract_z
 _atom_site_occupancy
 O2 O 2 e 0.261 0.25 0.5776 1
 O1 O 2 e 0.2982 0.25 0.0424 1
 Er Er 2 e 0.8668 0.25 0.191 1
 H H 2 e 0.4349 0.25 0.6368 1


_exptl_crystal_colour                    ?
_exptl_crystal_density_meas              ?
_exptl_crystal_density_diffrn            7.54
_cell_measurement_temperature            ?
_cell_measurement_radiation              neutrons
_cell_measurement_wavelength             1.11
_pd_proc_wavelength                      1.11
_cell_measurement_reflns_used            ?
_diffrn_ambient_temperature              ?
_diffrn_measurement_device               diffractometer
_diffrn_measurement_device_type          ?
_diffrn_radiation_type                   neutrons
_diffrn_radiation_wavelength             1.11
_diffrn_reflns_number                    ?
_exptl_absorpt_coefficient_mu            ?
_exptl_absorpt_correction_type           ?
_computing_structure_solution            'starting values from the literature'
_refine_ls_number_parameters             ?
_refine_ls_number_reflns                 ?
_refine_ls_R_factor_gt                   ?
_refine_ls_wR_factor_gt                  ?
_pd_proc_ls_proof_R_factor               ?
_pd_proc_ls_proof_wR_factor              ?
_refine_ls_R_I_factor                    0.067

# Published diffraction lines

loop_
 _refln_index_h
 _refln_index_k
 _refln_index_l
 _refln_d_spacing
 _refln_intensity_meas
 1 0 0 56.8 2.46
 0 0 1 78.5 9.13
 1 0 -1 80.3 9.13
 1 1 0 105.1 9.39
 1 0 1 111.5 1.30
 2 0 0 114.1 1.30
 2 0 -1 115.3 1.30
 1 1 -1 118.4 5.10
 1 1 -1 119.7 5.10
 1 1 1 142.8 21.42
 2 1 0 144.9 21.42
 2 1 -1 145.8 21.42
 0 0 2 158.6 40.91
 2 0 1 159.7 40.91
 2 0 -2 162.3 40.91
 3 0 -1 164.2 40.91
 3 0 0 172.6 32.80
 1 1 -2 174.6 32.80
 0 2 0 178.4 32.80
 0 1 2 182.6 113.12
 2 1 1 183.5 113.12
 2 1 -2 185.8 113.12
 1 0 2 186.6 113.12
 3 1 -1 187.6 113.12
 1 2 0 187.8 113.12
 3 0 -2 192.9 21.70
 3 1 0 195.1 21.70
 0 2 1 196 21.70
 1 2 -1 196.8 21.70

# End of data set 548415


