##############################################################################
#                                                                            #
# Er-I-S           # ErSI hex                                      #  307251 #
#                                                                            #
##############################################################################
#                                                                            #
#                           Pearson's Crystal Data                           #
#      Crystal Structure Database for Inorganic Compounds (on DVD)           #
#                              Release 2017/18                               #
#                  Editors: Pierre Villars and Karin Cenzual                 #
#                                                                            #
#   Copyright (c) ASM International & Material Phases Data System (MPDS),    #
# Switzerland & National Institute for Materials Science (NIMS), Japan, 2017 #
#                   All rights reserved. Version 2017.08                     #
#                                                                            #
#   This copy of Pearson's Crystal Data is licensed to:                      #
#   University of Alberta, Chemistry Department, 1-5 Installations License         #
#                                                                            #
##############################################################################

data_307251
_audit_creation_date                     2017-12-01
_audit_creation_method
;
Pearson's Crystal Data browser
;
#_database_code_PCD                      307251

# Entry summary

_chemical_formula_structural             'Er S I'
_chemical_formula_sum                    'Er I S'
_chemical_name_mineral                   ?
_chemical_compound_source                ?
_chemical_name_structure_type            GdSI,hP12,174
_chemical_formula_weight                 326.2

# Bibliographic data

_publ_section_title
;
R\'epartition des types cristallins dans la s\'erie des iodosulfures et fluorosulfures des \'el\'ements des terres rares et d'yttrium
;
_journal_coden_ASTM                      CHDCAQ
_journal_name_full                       'C. R. Seances Acad. Sci., Ser. C'
_journal_year                            1969
_journal_volume                          268
_journal_page_first                      1867
_journal_page_last                       1869
_journal_language                        French
loop_
 _publ_author_name
 _publ_author_address
'Dagron C.'
;
Paris V Ren\'e Descartes University
Paris
France
;
'Th\'evet M.F.'
;
Paris University
Paris
France
;

# Standardized crystallographic data

_cell_length_a                           10.61
_cell_length_b                           10.61
_cell_length_c                           4.13
_cell_angle_alpha                        90
_cell_angle_beta                         90
_cell_angle_gamma                        120
_cell_volume                             402.6
_cell_formula_units_Z                    4
_space_group_IT_number                   174
_space_group_name_H-M_alt                'P -6'
loop_
 _space_group_symop_id
 _space_group_symop_operation_xyz
 1 'x, y, z'
 2 '-x+y, -x, -z'
 3 '-x+y, -x, z'
 4 '-y, x-y, -z'
 5 '-y, x-y, z'
 6 'x, y, -z'

# Atomic positions taken from type-defining entry

loop_
 _atom_type_symbol
 I
 S
 Er
loop_
 _atom_site_label
 _atom_site_type_symbol
 _atom_site_symmetry_multiplicity
 _atom_site_Wyckoff_symbol
 _atom_site_fract_x
 _atom_site_fract_y
 _atom_site_fract_z
 _atom_site_occupancy
 I1 I 3 k 0.14967 0.31433 0.5 1
 S1 S 3 j 0.03467 0.51733 0 1
 Er1 Er 3 j 0.30167 0.15433 0 1
 I2 I 1 f 0.666667 0.333333 0.5 1
 Er2 Er 1 c 0.333333 0.666667 0 1
 S2 S 1 a 0 0 0 1


_exptl_crystal_colour                    rose
_exptl_crystal_density_meas              ?
_exptl_crystal_density_diffrn            5.38
_cell_measurement_temperature            ?
_cell_measurement_radiation              X-rays
_cell_measurement_reflns_used            ?
_diffrn_ambient_temperature              ?
_diffrn_measurement_device               film
_diffrn_measurement_device_type          ?
_diffrn_radiation_type                   ?
_diffrn_reflns_number                    ?
_exptl_absorpt_coefficient_mu            ?
_exptl_absorpt_correction_type           ?
_computing_structure_solution            ?
_refine_ls_number_parameters             ?
_refine_ls_number_reflns                 ?
_refine_ls_R_factor_gt                   ?
_refine_ls_wR_factor_gt                  ?

# End of data set 307251


