##############################################################################
#                                                                            #
# Er-O-Ta          # ErTaO4 m                                      #  545246 #
#                                                                            #
##############################################################################
#                                                                            #
#                           Pearson's Crystal Data                           #
#      Crystal Structure Database for Inorganic Compounds (on DVD)           #
#                              Release 2017/18                               #
#                  Editors: Pierre Villars and Karin Cenzual                 #
#                                                                            #
#   Copyright (c) ASM International & Material Phases Data System (MPDS),    #
# Switzerland & National Institute for Materials Science (NIMS), Japan, 2017 #
#                   All rights reserved. Version 2017.08                     #
#                                                                            #
#   This copy of Pearson's Crystal Data is licensed to:                      #
#   University of Alberta, Chemistry Department, 1-5 Installations License         #
#                                                                            #
##############################################################################

data_545246
_audit_creation_date                     2017-12-04
_audit_creation_method
;
Pearson's Crystal Data browser
;
#_database_code_PCD                      545246

# Entry summary

_chemical_formula_structural             'Er Ta O~4~'
_chemical_formula_sum                    'Er O4 Ta'
_chemical_name_mineral                   ?
_chemical_compound_source                ?
_chemical_name_structure_type            LaNbO~4~,mS24,15
_chemical_formula_weight                 412.2

# Bibliographic data

_publ_section_title
'Preparation and some properties of erbium orthotantalate'                    
_journal_coden_ASTM                      RJICAQ
_journal_name_full                       'Russ. J. Inorg. Chem.'
_journal_year                            1969
_journal_volume                          14
_journal_page_first                      1201
_journal_page_last                       1202
_journal_language                        English
loop_
 _publ_author_name
 _publ_author_address
'Krivonosov L.B.'
;
Russian Academy of Sciences
Kirov S.M. Polytechnic Institute
Ekaterinburg
Russia
;
'Krylov E.I.'
;
Russian Academy of Sciences
Kirov S.M. Polytechnic Institute
Ekaterinburg
Russia
;
'Zavol'skii V.A.'
;
Russian Academy of Sciences
Kirov S.M. Polytechnic Institute
Ekaterinburg
Russia
;

# Standardized crystallographic data

_cell_length_a                           6.9954
_cell_length_b                           10.86
_cell_length_c                           5.105
_cell_angle_alpha                        90
_cell_angle_beta                         131.086
_cell_angle_gamma                        90
_cell_volume                             292.3
_cell_formula_units_Z                    4
_space_group_IT_number                   15
_space_group_name_H-M_alt                'C 1 2/c 1'
loop_
 _space_group_symop_id
 _space_group_symop_operation_xyz
 1 'x, y, z'
 2 '-x, -y, -z'
 3 '-x, y, 1/2-z'
 4 'x, -y, 1/2+z'
 5 '1/2+x, 1/2+y, z'
 6 '1/2-x, 1/2-y, -z'
 7 '1/2-x, 1/2+y, 1/2-z'
 8 '1/2+x, 1/2-y, 1/2+z'

# Atomic positions taken from type-defining entry

loop_
 _atom_type_symbol
 O
 Ta
 Er
loop_
 _atom_site_label
 _atom_site_type_symbol
 _atom_site_symmetry_multiplicity
 _atom_site_Wyckoff_symbol
 _atom_site_fract_x
 _atom_site_fract_y
 _atom_site_fract_z
 _atom_site_occupancy
 O1 O 8 f 0.146 0.2042 0.1572 1
 O2 O 8 f 0.2624 0.4663 0.317 1
 Ta1 Ta 4 e 0 0.1036 0.25 1
 Er1 Er 4 e 0 0.6292 0.25 1


_exptl_crystal_colour                    pink
_exptl_crystal_density_meas              9.32
_exptl_crystal_density_diffrn            9.37
_cell_measurement_temperature            ?
_cell_measurement_radiation              'X-rays, Cu Ka'
_cell_measurement_reflns_used            ?
_diffrn_ambient_temperature              ?
_diffrn_measurement_device               film
_diffrn_measurement_device_type          ?
_diffrn_radiation_type                   ?
_diffrn_reflns_number                    ?
_exptl_absorpt_coefficient_mu            ?
_exptl_absorpt_correction_type           ?
_computing_structure_solution            ?
_refine_ls_number_parameters             ?
_refine_ls_number_reflns                 ?
_refine_ls_R_factor_gt                   ?
_refine_ls_wR_factor_gt                  ?

# Published diffraction lines

loop_
 _refln_index_h
 _refln_index_k
 _refln_index_l
 _refln_d_spacing
 _refln_intensity_meas
 1 2 1 31.29 10
 1 2 1 29.09 10
 0 4 0 27.22 3
 0 0 2 26.09 3
 2 0 0 25.17 2
 0 4 2 19.05 2
 2 0 2 18.85 2
 2 4 0 18.47 1.5
 2 0 -2 17.23 1.5
 1 2 3 16.24 1.5
 1 2 -3 15.74 1.5
 3 2 -1 15.3 1.5
 3 2 -1 14.93 1.5
 2 4 -2 14.55 1.5

# End of data set 545246


