##############################################################################
#                                                                            #
# As-Eu            # Eu2As3 rt                                     #  527553 #
#                                                                            #
##############################################################################
#                                                                            #
#                           Pearson's Crystal Data                           #
#      Crystal Structure Database for Inorganic Compounds (on DVD)           #
#                              Release 2017/18                               #
#                  Editors: Pierre Villars and Karin Cenzual                 #
#                                                                            #
#   Copyright (c) ASM International & Material Phases Data System (MPDS),    #
# Switzerland & National Institute for Materials Science (NIMS), Japan, 2017 #
#                   All rights reserved. Version 2017.08                     #
#                                                                            #
#   This copy of Pearson's Crystal Data is licensed to:                      #
#   University of Alberta, Chemistry Department, 1-5 Installations License         #
#                                                                            #
##############################################################################

data_527553
_audit_creation_date                     2017-12-01
_audit_creation_method
;
Pearson's Crystal Data browser
;
#_database_code_PCD                      527553

# Entry summary

_chemical_formula_structural             'Eu~2~ As~3~'
_chemical_formula_sum                    'As3 Eu2'
_chemical_name_mineral                   ?
_chemical_compound_source                ?
_chemical_name_structure_type            Ca~2~As~3~,mP40,13
_chemical_formula_weight                 528.7

# Bibliographic data

_publ_section_title
'Crystal chemistry of europium-arsenic compounds'                             
_journal_coden_ASTM                      ACACBN
_journal_name_full                       'Acta Crystallogr. A'
_journal_year                            1978
_journal_volume                          34
_journal_page_first                      S156b
_journal_page_last                       ?
_journal_language                        English
loop_
 _publ_author_name
 _publ_author_address
'Wang Y.'
;
National Research Council of Canada (NRCC)
Chemistry Division
Ottawa
Canada
;
'Calvert L.D.'
;
National Research Council of Canada (NRCC)
Chemistry Division
Ottawa
Canada
;
'Taylor J.B.'
;
National Research Council of Canada (NRCC)
Chemistry Division
Ottawa
Canada
;
'Gabe E.J.'
;
National Research Council of Canada (NRCC)
Division of Chemistry
Ottawa
Canada
;

# Standardized crystallographic data

_cell_length_a                           12.325
_cell_length_b                           5.9559
_cell_length_c                           18.6117
_cell_angle_alpha                        90
_cell_angle_beta                         130.725
_cell_angle_gamma                        90
_cell_volume                             1035.39
_cell_formula_units_Z                    8
_space_group_IT_number                   13
_space_group_name_H-M_alt                'P 1 2/c 1'
loop_
 _space_group_symop_id
 _space_group_symop_operation_xyz
 1 'x, y, z'
 2 '-x, -y, -z'
 3 '-x, y, 1/2-z'
 4 'x, -y, 1/2+z'

# Atomic positions taken from type-defining entry

loop_
 _atom_type_symbol
 As
 Eu
loop_
 _atom_site_label
 _atom_site_type_symbol
 _atom_site_symmetry_multiplicity
 _atom_site_Wyckoff_symbol
 _atom_site_fract_x
 _atom_site_fract_y
 _atom_site_fract_z
 _atom_site_occupancy
 As1 As 4 g 0.0747 0.5465 0.3413 1
 Eu1 Eu 4 g 0.1339 0.2618 0.5095 1
 As2 As 4 g 0.1588 0.0509 0.6720 1
 As3 As 4 g 0.1876 0.2224 0.0783 1
 Eu2 Eu 4 g 0.2394 0.4527 0.2481 1
 As4 As 4 g 0.2841 0.2712 0.4214 1
 Eu3 Eu 4 g 0.3754 0.2441 0.0010 1
 As5 As 4 g 0.4544 0.6072 0.1658 1
 As6 As 4 g 0.6050 0.0982 0.6557 1
 Eu4 Eu 2 f 0.5 0.0980 0.25 1
 Eu5 Eu 2 e 0 0.0366 0.25 1


_exptl_crystal_colour                    ?
_exptl_crystal_density_meas              ?
_exptl_crystal_density_diffrn            6.78
_cell_measurement_temperature            ?
_cell_measurement_radiation              X-rays
_cell_measurement_reflns_used            ?
_diffrn_ambient_temperature              ?
_diffrn_measurement_device               ?
_diffrn_measurement_device_type          ?
_diffrn_radiation_type                   ?
_diffrn_reflns_number                    ?
_exptl_absorpt_coefficient_mu            ?
_exptl_absorpt_correction_type           ?
_computing_structure_solution            ?
_refine_ls_number_parameters             ?
_refine_ls_number_reflns                 ?
_refine_ls_R_factor_gt                   ?
_refine_ls_wR_factor_gt                  ?

# End of data set 527553


