##############################################################################
#                                                                            #
# Eu-Ge-S          # Eu2GeS4 ht                                    #  377209 #
#                                                                            #
##############################################################################
#                                                                            #
#                           Pearson's Crystal Data                           #
#      Crystal Structure Database for Inorganic Compounds (on DVD)           #
#                              Release 2017/18                               #
#                  Editors: Pierre Villars and Karin Cenzual                 #
#                                                                            #
#   Copyright (c) ASM International & Material Phases Data System (MPDS),    #
# Switzerland & National Institute for Materials Science (NIMS), Japan, 2017 #
#                   All rights reserved. Version 2017.08                     #
#                                                                            #
#   This copy of Pearson's Crystal Data is licensed to:                      #
#   University of Alberta, Chemistry Department, 1-5 Installations License         #
#                                                                            #
##############################################################################

data_377209
_audit_creation_date                     2017-12-01
_audit_creation_method
;
Pearson's Crystal Data browser
;
#_database_code_PCD                      377209

# Entry summary

_chemical_formula_structural             'Eu~2~ Ge S~4~'
_chemical_formula_sum                    'Eu2 Ge S4'
_chemical_name_mineral                   ?
_chemical_compound_source                ?
_chemical_name_structure_type            Sr~2~GeS~4~,mP14,11
_chemical_formula_weight                 504.8
_chemical_melting_point                  1433

# Bibliographic data

_publ_section_title
;
Syst\`eme EuS-GeS~2~. Compos\'es Eu~2~GeS~4~ et EuGeS~3~
;
_journal_coden_ASTM                      CHDCAQ
_journal_name_full                       'C. R. Seances Acad. Sci., Ser. C'
_journal_year                            1978
_journal_volume                          286
_journal_page_first                      205
_journal_page_last                       208
_journal_language                        French
loop_
 _publ_author_name
 _publ_author_address
'Barnier S.'
;
Paris V Ren\'e Descartes University
Laboratoire de Chimie Min\'erale Structurale
Paris
France
;
'Guittard M.'
;
Paris University
Paris
France
;

# Standardized crystallographic data

_cell_length_a                           6.7
_cell_length_b                           6.67
_cell_length_c                           8.22
_cell_angle_alpha                        90
_cell_angle_beta                         108.1
_cell_angle_gamma                        90
_cell_volume                             349.2
_cell_formula_units_Z                    2
_space_group_IT_number                   11
_space_group_name_H-M_alt                'P 1 21/m 1'
loop_
 _space_group_symop_id
 _space_group_symop_operation_xyz
 1 'x, y, z'
 2 '-x, -y, -z'
 3 '-x, 1/2+y, -z'
 4 'x, 1/2-y, z'

# Atomic positions taken from type-defining entry

loop_
 _atom_type_symbol
 S
 Eu
 Ge
loop_
 _atom_site_label
 _atom_site_type_symbol
 _atom_site_symmetry_multiplicity
 _atom_site_Wyckoff_symbol
 _atom_site_fract_x
 _atom_site_fract_y
 _atom_site_fract_z
 _atom_site_occupancy
 S1 S 4 f 0.0059 0.0028 0.2396 1
 Eu1 Eu 2 e 0.2188 0.25 0.5516 1
 Eu2 Eu 2 e 0.2686 0.25 0.0681 1
 S2 S 2 e 0.5797 0.25 0.8725 1
 S3 S 2 e 0.6007 0.25 0.4255 1
 Ge1 Ge 2 e 0.7747 0.25 0.7004 1


_exptl_crystal_colour                    ?
_exptl_crystal_density_meas              ?
_exptl_crystal_density_diffrn            4.80
_cell_measurement_temperature            ?
_cell_measurement_radiation              X-rays
_cell_measurement_reflns_used            ?
_diffrn_ambient_temperature              ?
_diffrn_measurement_device               film
_diffrn_measurement_device_type          ?
_diffrn_radiation_type                   ?
_diffrn_reflns_number                    ?
_exptl_absorpt_coefficient_mu            ?
_exptl_absorpt_correction_type           ?
_computing_structure_solution            ?
_refine_ls_number_parameters             ?
_refine_ls_number_reflns                 ?
_refine_ls_R_factor_gt                   ?
_refine_ls_wR_factor_gt                  ?

# End of data set 377209


