##############################################################################
#                                                                            #
# Eu-Ge-S          # Eu2GeS4 rt                                    # 1001084 #
#                                                                            #
##############################################################################
#                                                                            #
#                           Pearson's Crystal Data                           #
#      Crystal Structure Database for Inorganic Compounds (on DVD)           #
#                              Release 2017/18                               #
#                  Editors: Pierre Villars and Karin Cenzual                 #
#                                                                            #
#   Copyright (c) ASM International & Material Phases Data System (MPDS),    #
# Switzerland & National Institute for Materials Science (NIMS), Japan, 2017 #
#                   All rights reserved. Version 2017.08                     #
#                                                                            #
#   This copy of Pearson's Crystal Data is licensed to:                      #
#   University of Alberta, Chemistry Department, 1-5 Installations License         #
#                                                                            #
##############################################################################

data_1001084
_audit_creation_date                     2017-12-04
_audit_creation_method
;
Pearson's Crystal Data browser
;
#_database_code_PCD                      1001084

# Entry summary

_chemical_formula_structural             'Eu~2~ Ge S~4~'
_chemical_formula_sum                    'Eu2 Ge S4'
_chemical_name_mineral                   ?
_chemical_compound_source                ?
_chemical_name_structure_type            Eu~2~GeS~4~,mP14,4
_chemical_formula_weight                 504.8

# Bibliographic data

_publ_section_title
'Structural Evidence for Ferroelectricity in Eu~2~GeS~4~'                     
_journal_coden_ASTM                      JSSCBI
_journal_name_full                       'J. Solid State Chem.'
_journal_year                            2001
_journal_volume                          158
_journal_page_first                      343
_journal_page_last                       348
_journal_language                        English
loop_
 _publ_author_name
 _publ_author_address
'Tampier M.'
;
D\"usseldorf Heinrich Heine University
Institut f\"ur Anorganische Chemie und Strukturchemie
D\"usseldorf
Germany
;
'Johrendt D.'
;
D\"usseldorf Heinrich Heine University
Institut f\"ur Anorganische Chemie und Strukturchemie
D\"usseldorf
Germany
;

# Standardized crystallographic data

_cell_length_a                           6.639
_cell_length_b                           6.674
_cell_length_c                           8.146
_cell_angle_alpha                        90
_cell_angle_beta                         108.19
_cell_angle_gamma                        90
_cell_volume                             342.9
_cell_formula_units_Z                    2
_space_group_IT_number                   4
_space_group_name_H-M_alt                'P 1 21 1'
loop_
 _space_group_symop_id
 _space_group_symop_operation_xyz
 1 'x, y, z'
 2 '-x, 1/2+y, -z'
loop_
 _atom_type_symbol
 S
 Eu
 Ge
loop_
 _atom_site_label
 _atom_site_type_symbol
 _atom_site_symmetry_multiplicity
 _atom_site_Wyckoff_symbol
 _atom_site_fract_x
 _atom_site_fract_y
 _atom_site_fract_z
 _atom_site_occupancy
 S4 S 2 a 0.0031 0.2618 0.7628 1
 S3 S 2 a 0.0134 0.254 0.2411 1
 Eu1 Eu 2 a 0.2185 0.0016 0.5521 1
 Ge Ge 2 a 0.2266 0.5145 0.2994 1
 Eu2 Eu 2 a 0.2674 0.0 0.0678 1
 S2 S 2 a 0.4215 0.5258 0.1269 1
 S1 S 2 a 0.5975 0.0316 0.4235 1


_exptl_crystal_colour                    'orange bright'
_exptl_crystal_density_meas              ?
_exptl_crystal_density_diffrn            4.89
_cell_measurement_temperature            298
_cell_measurement_radiation              'X-rays, Mo Ka1'
_cell_measurement_wavelength             0.71073
_cell_measurement_reflns_used            39
_diffrn_ambient_temperature              298
_diffrn_measurement_device               'automatic diffractometer'
_diffrn_measurement_device_type          'Siemens-STOE AED2'
_diffrn_radiation_type                   'X-rays, Mo Ka1'
_diffrn_radiation_wavelength             0.71073
_diffrn_reflns_number                    ?
_diffrn_reflns_theta_min                 1
_diffrn_reflns_theta_max                 30
_exptl_absorpt_coefficient_mu            23.51
_exptl_absorpt_correction_type           empirical
_computing_structure_solution            'starting values from the literature'
_refine_ls_number_parameters             ?
_refine_ls_number_reflns                 2033
_refine_ls_R_factor_gt                   0.032
_refine_ls_wR_factor_gt                  0.041

# End of data set 1001084


