##############################################################################
#                                                                            #
# Eu-Ge-S          # Eu2GeS4 ht                                    #  546503 #
#                                                                            #
##############################################################################
#                                                                            #
#                           Pearson's Crystal Data                           #
#      Crystal Structure Database for Inorganic Compounds (on DVD)           #
#                              Release 2017/18                               #
#                  Editors: Pierre Villars and Karin Cenzual                 #
#                                                                            #
#   Copyright (c) ASM International & Material Phases Data System (MPDS),    #
# Switzerland & National Institute for Materials Science (NIMS), Japan, 2017 #
#                   All rights reserved. Version 2017.08                     #
#                                                                            #
#   This copy of Pearson's Crystal Data is licensed to:                      #
#   University of Alberta, Chemistry Department, 1-5 Installations License         #
#                                                                            #
##############################################################################

data_546503
_audit_creation_date                     2017-12-04
_audit_creation_method
;
Pearson's Crystal Data browser
;
#_database_code_PCD                      546503

# Entry summary

_chemical_formula_structural             'Eu~2~ Ge S~4~'
_chemical_formula_sum                    'Eu2 Ge S4'
_chemical_name_mineral                   ?
_chemical_compound_source                ?
_chemical_name_structure_type            Sr~2~GeS~4~,mP14,11
_chemical_formula_weight                 504.8

# Bibliographic data

_publ_section_title
'Synthesis and X-ray Diffraction Investigation of Europium Orthothiogermanate'
_journal_coden_ASTM                      RJICAQ
_journal_name_full                       'Russ. J. Inorg. Chem.'
_journal_year                            1979
_journal_volume                          24
_journal_page_first                      166
_journal_page_last                       168
_journal_language                        English
loop_
 _publ_author_name
 _publ_author_address
'Senova R.N.'
;
Tomsk State University
Kuznetsov Siberian Physicotechnical Institute
Tomsk
Russia
;
'Serebrennikov V.V.'
;
Tomsk State University
Kuznetsov Siberian Physicotechnical Institute
Tomsk
Russia
;

# Standardized crystallographic data

_cell_length_a                           6.583
_cell_length_b                           6.7141
_cell_length_c                           8.112
_cell_angle_alpha                        90
_cell_angle_beta                         107.4
_cell_angle_gamma                        90
_cell_volume                             342.1
_cell_formula_units_Z                    2
_space_group_IT_number                   11
_space_group_name_H-M_alt                'P 1 21/m 1'
loop_
 _space_group_symop_id
 _space_group_symop_operation_xyz
 1 'x, y, z'
 2 '-x, -y, -z'
 3 '-x, 1/2+y, -z'
 4 'x, 1/2-y, z'

# Atomic positions taken from type-defining entry

loop_
 _atom_type_symbol
 S
 Eu
 Ge
loop_
 _atom_site_label
 _atom_site_type_symbol
 _atom_site_symmetry_multiplicity
 _atom_site_Wyckoff_symbol
 _atom_site_fract_x
 _atom_site_fract_y
 _atom_site_fract_z
 _atom_site_occupancy
 S1 S 4 f 0.0059 0.0028 0.2396 1
 Eu1 Eu 2 e 0.2188 0.25 0.5516 1
 Eu2 Eu 2 e 0.2686 0.25 0.0681 1
 S2 S 2 e 0.5797 0.25 0.8725 1
 S3 S 2 e 0.6007 0.25 0.4255 1
 Ge1 Ge 2 e 0.7747 0.25 0.7004 1


_exptl_crystal_colour                    orange
_exptl_crystal_density_meas              4.86
_exptl_crystal_density_diffrn            4.90
_cell_measurement_temperature            ?
_cell_measurement_radiation              'X-rays, Cr Ka'
_cell_measurement_reflns_used            ?
_diffrn_ambient_temperature              ?
_diffrn_measurement_device               'Debye-Scherrer film'
_diffrn_measurement_device_type          ?
_diffrn_radiation_type                   ?
_diffrn_reflns_number                    ?
_exptl_absorpt_coefficient_mu            ?
_exptl_absorpt_correction_type           ?
_computing_structure_solution            ?
_refine_ls_number_parameters             ?
_refine_ls_number_reflns                 ?
_refine_ls_R_factor_gt                   ?
_refine_ls_wR_factor_gt                  ?

# Published diffraction lines

loop_
 _refln_index_h
 _refln_index_k
 _refln_index_l
 _refln_d_spacing
 _refln_intensity_meas
 1 1 0 50.691 1
 0 1 1 45.935 5
 -1 1 1 44.2 0.5
 1 0 1 42.836 2
 2 0 0 38.824 1
 0 2 0 33.555 10
 0 0 2 31.548 3
 -1 1 2 29.4 7
 -3 0 1 26.843 10
 1 2 1 26.395 0.5
 2 2 0 25.353 7
 3 1 0 24.137 0.5
 0 2 2 22.944 7
 0 3 0 22.397 1
 2 2 1 22.049 1
 2 0 2 21.419 0.5
 -3 2 1 20.986 1
 3 2 0 20.447 7
 0 1 3 20.05 2
 4 0 0 19.349 3
 1 0 3 18.876 0.5
 -2 3 2 17.735 5
 -4 2 1 17.424 3
 3 3 1 17.182 0.5
 1 3 2 17.079 0.5
 3 3 0 16.922 0.5
 -4 2 2 16.702 5
 1 4 0 16.392 0.5
 2 1 3 15.983 5
 0 0 4 15.706 0.5
 2 3 3 15.443 0.5
 0 3 3 15.28 5

# End of data set 546503


