##############################################################################
#                                                                            #
# Eu-Ni            # Eu2Ni17                                       #  528491 #
#                                                                            #
##############################################################################
#                                                                            #
#                           Pearson's Crystal Data                           #
#      Crystal Structure Database for Inorganic Compounds (on DVD)           #
#                              Release 2017/18                               #
#                  Editors: Pierre Villars and Karin Cenzual                 #
#                                                                            #
#   Copyright (c) ASM International & Material Phases Data System (MPDS),    #
# Switzerland & National Institute for Materials Science (NIMS), Japan, 2017 #
#                   All rights reserved. Version 2017.08                     #
#                                                                            #
#   This copy of Pearson's Crystal Data is licensed to:                      #
#   University of Alberta, Chemistry Department, 1-5 Installations License         #
#                                                                            #
##############################################################################

data_528491
_audit_creation_date                     2017-12-01
_audit_creation_method
;
Pearson's Crystal Data browser
;
#_database_code_PCD                      528491

# Entry summary

_chemical_formula_structural             'Eu~2~ Ni~17~'
_chemical_formula_sum                    'Eu2 Ni17'
_chemical_name_mineral                   ?
_chemical_compound_source                ?
_chemical_name_structure_type            Th~2~Ni~17~,hP38,194
_chemical_formula_weight                 1301.8

# Bibliographic data

_publ_section_title
'Eu~2~Ni~17~ and EuNi~5~ compounds and their crystal structure'               
_journal_coden_ASTM                      RMLYAQ
_journal_name_full                       'Russ. Metall.'
_journal_year                            1967
_journal_volume                          ?
_journal_issue                           1
_journal_page_first                      107
_journal_page_last                       109
_journal_language                        English
loop_
 _publ_author_name
 _publ_author_address
'Terekhova V.F.'
;
Russian Academy of Sciences
Baikov A.A. Institute of Metallurgy
Moscow
Russia
;
'Krypyakevych P.I.'
;
Lviv Ivan Franko National University
Department of Inorganic Chemistry
Lviv
Ukraine
;
'Frankevich D.P.'
;
Lviv Ivan Franko National University
Lviv
Ukraine
;
'Torchinova R.S.'
;
Russian Academy of Sciences
Moscow
Russia
;

# Standardized crystallographic data

_cell_length_a                           8.35
_cell_length_b                           8.35
_cell_length_c                           8.06
_cell_angle_alpha                        90
_cell_angle_beta                         90
_cell_angle_gamma                        120
_cell_volume                             486.67
_cell_formula_units_Z                    2
_space_group_IT_number                   194
_space_group_name_H-M_alt                'P 63/m m c'
loop_
 _space_group_symop_id
 _space_group_symop_operation_xyz
 1 'x, y, z'
 2 '-x+y, -x, 1/2-z'
 3 '-x+y, -x, z'
 4 '-x+y, y, 1/2-z'
 5 '-x+y, y, z'
 6 '-x, -x+y, -z'
 7 '-x, -x+y, 1/2+z'
 8 '-x, -y, -z'
 9 '-x, -y, 1/2+z'
 10 '-y, -x, 1/2-z'
 11 '-y, -x, z'
 12 '-y, x-y, 1/2-z'
 13 '-y, x-y, z'
 14 'x, x-y, 1/2-z'
 15 'x, x-y, z'
 16 'x, y, 1/2-z'
 17 'x-y, -y, -z'
 18 'x-y, -y, 1/2+z'
 19 'x-y, x, -z'
 20 'x-y, x, 1/2+z'
 21 'y, -x+y, -z'
 22 'y, -x+y, 1/2+z'
 23 'y, x, -z'
 24 'y, x, 1/2+z'
loop_
 _atom_type_symbol
 Ni
 Eu
loop_
 _atom_site_label
 _atom_site_type_symbol
 _atom_site_symmetry_multiplicity
 _atom_site_Wyckoff_symbol
 _atom_site_fract_x
 _atom_site_fract_y
 _atom_site_fract_z
 _atom_site_occupancy
 Ni4 Ni 12 k 0.167 0.334 0.0 1
 Ni3 Ni 12 j -0.038 0.333 0.25 1
 Ni2 Ni 6 g 0.5 0 0 1
 Ni1 Ni 4 f 0.333333 0.666667 0.61 1
 Eu2 Eu 2 c 0.333333 0.666667 0.25 1
 Eu1 Eu 2 b 0 0 0.25 1


_exptl_crystal_colour                    ?
_exptl_crystal_density_meas              ?
_exptl_crystal_density_diffrn            8.88
_cell_measurement_temperature            ?
_cell_measurement_radiation              'X-rays, Cr Ka'
_cell_measurement_reflns_used            ?
_diffrn_ambient_temperature              ?
_diffrn_measurement_device               'Debye-Scherrer film'
_diffrn_measurement_device_type          ?
_diffrn_radiation_type                   'X-rays, Cr Ka'
_diffrn_reflns_number                    ?
_exptl_absorpt_coefficient_mu            ?
_exptl_absorpt_correction_type           ?
_computing_structure_solution            ?
_refine_ls_number_parameters             ?
_refine_ls_number_reflns                 ?
_refine_ls_R_factor_gt                   ?
_refine_ls_wR_factor_gt                  ?
_pd_proc_ls_proof_R_factor               ?
_pd_proc_ls_proof_wR_factor              ?
_refine_ls_R_I_factor                    ?

# Published diffraction lines

loop_
 _refln_index_h
 _refln_index_k
 _refln_index_l
 _refln_d_spacing
 _refln_intensity_meas
 1 1 2 1.56 20
 2 1 1 1.96 5
 3 0 0 2.25 25
 2 0 3 2.81 10
 2 2 0 3.06 80
 0 0 4 3.22 15
 2 1 3 3.57 5
 2 2 2 3.8 20
 1 1 4 3.99 5
 3 2 1 4.98 5
 3 0 4 5.49 15
 2 0 5 6.07 20
 2 2 4 6.26 30
 3 2 3 6.59 10
 3 3 0 6.79 10
 3 3 2 7.59 35
 3 2 4 8.03 15
 4 2 3 8.83 15
 2 1 6 9.03 40
 4 3 1 9.53 100

# End of data set 528491


