##############################################################################
#                                                                            #
# B-Eu-Os          # Eu2Os3B5                                      #  462425 #
#                                                                            #
##############################################################################
#                                                                            #
#                           Pearson's Crystal Data                           #
#      Crystal Structure Database for Inorganic Compounds (on DVD)           #
#                              Release 2017/18                               #
#                  Editors: Pierre Villars and Karin Cenzual                 #
#                                                                            #
#   Copyright (c) ASM International & Material Phases Data System (MPDS),    #
# Switzerland & National Institute for Materials Science (NIMS), Japan, 2017 #
#                   All rights reserved. Version 2017.08                     #
#                                                                            #
#   This copy of Pearson's Crystal Data is licensed to:                      #
#   University of Alberta, Chemistry Department, 1-5 Installations License         #
#                                                                            #
##############################################################################

data_462425
_audit_creation_date                     2017-12-01
_audit_creation_method
;
Pearson's Crystal Data browser
;
#_database_code_PCD                      462425

# Entry summary

_chemical_formula_structural             'Eu~2~ Os~3~ B~5~'
_chemical_formula_sum                    'B5 Eu2 Os3'
_chemical_name_mineral                   ?
_chemical_compound_source                ?
_chemical_name_structure_type            Ca~2~Os~3~B~5~,mS20,5
_chemical_formula_weight                 928.6

# Bibliographic data

_publ_section_title
;
Darstellung und Kristallstruktur der isotypen Verbindungen Ca~2~Os~3~B~5~ und Eu~2~Os~3~B~5~
;
_journal_coden_ASTM                      ZAACAB
_journal_name_full                       'Z. Anorg. Allg. Chem.'
_journal_year                            1986
_journal_volume                          533
_journal_page_first                      30
_journal_page_last                       36
_journal_language                        German
loop_
 _publ_author_name
 _publ_author_address
'Schweitzer K.'
;
Cologne (K\"oln) University
Institut f\"ur Anorganische Chemie
Cologne (K\"oln)
Germany
;
'Jung W.'
;
Cologne (K\"oln) University
Institut f\"ur Anorganische Chemie
Cologne (K\"oln)
Germany
;

# Standardized crystallographic data

_cell_length_a                           10.7026
_cell_length_b                           4.071
_cell_length_c                           8.001
_cell_angle_alpha                        90
_cell_angle_beta                         124.657
_cell_angle_gamma                        90
_cell_volume                             286.8
_cell_formula_units_Z                    2
_space_group_IT_number                   5
_space_group_name_H-M_alt                'C 1 2 1'
loop_
 _space_group_symop_id
 _space_group_symop_operation_xyz
 1 'x, y, z'
 2 '-x, y, -z'
 3 '1/2+x, 1/2+y, z'
 4 '1/2-x, 1/2+y, -z'
loop_
 _atom_type_symbol
 B
 Os
 Eu
loop_
 _atom_site_label
 _atom_site_type_symbol
 _atom_site_symmetry_multiplicity
 _atom_site_Wyckoff_symbol
 _atom_site_fract_x
 _atom_site_fract_y
 _atom_site_fract_z
 _atom_site_occupancy
 B(2) B 4 c 0.028 0.498 0.121 1
 Os(2) Os 4 c 0.1346 0.2662 0.4051 1
 Eu Eu 4 c 0.3355 0.2828 0.2321 1
 B(3) B 4 c 0.645 0.287 0.313 1
 B(1) B 2 b 0 0.267 0.5 1
 Os(1) Os 2 a 0 0.0 0 1


_exptl_crystal_colour                    black
_exptl_crystal_density_meas              10.58
_exptl_crystal_density_diffrn            10.75
_cell_measurement_temperature            ?
_cell_measurement_radiation              'X-rays, Mo Ka'
_cell_measurement_reflns_used            ?
_diffrn_ambient_temperature              ?
_diffrn_measurement_device               'automatic diffractometer'
_diffrn_measurement_device_type          'Enraf-Nonius CAD4'
_diffrn_radiation_type                   'X-rays, Mo Ka'
_diffrn_reflns_number                    2446
_diffrn_reflns_theta_min                 3
_diffrn_reflns_theta_max                 45
_exptl_absorpt_coefficient_mu            ?
_exptl_absorpt_correction_type           cylindrical
_computing_structure_solution            'direct methods, Fourier synthesis'
_refine_ls_number_parameters             ?
_refine_ls_number_reflns                 581
_refine_ls_R_factor_gt                   0.047
_refine_ls_wR_factor_gt                  0.046

# End of data set 462425


