##############################################################################
#                                                                            #
# Eu-O             # Eu2O3 ht1                                     #  527221 #
#                                                                            #
##############################################################################
#                                                                            #
#                           Pearson's Crystal Data                           #
#      Crystal Structure Database for Inorganic Compounds (on DVD)           #
#                              Release 2017/18                               #
#                  Editors: Pierre Villars and Karin Cenzual                 #
#                                                                            #
#   Copyright (c) ASM International & Material Phases Data System (MPDS),    #
# Switzerland & National Institute for Materials Science (NIMS), Japan, 2017 #
#                   All rights reserved. Version 2017.08                     #
#                                                                            #
#   This copy of Pearson's Crystal Data is licensed to:                      #
#   University of Alberta, Chemistry Department, 1-5 Installations License         #
#                                                                            #
##############################################################################

data_527221
_audit_creation_date                     2017-12-01
_audit_creation_method
;
Pearson's Crystal Data browser
;
#_database_code_PCD                      527221

# Entry summary

_chemical_formula_structural             'Eu~2~ O~3~'
_chemical_formula_sum                    'Eu2 O3'
_chemical_name_mineral                   ?
_chemical_compound_source                ?
_chemical_name_structure_type            Sm~2~O~3~,mS30,12
_chemical_formula_weight                 351.9

# Bibliographic data

_publ_section_title
'X-ray Crystallographic Studies of Europium Oxides and Hydroxides'            
_journal_coden_ASTM                      18JXAL
_journal_name_full                       'Proc. Conf. Rare Earth Res., 3rd'
_journal_year                            1964
_journal_volume                          ?
_journal_page_first                      117
_journal_page_last                       134
_journal_language                        English
loop_
 _publ_author_name
 _publ_author_address
'Rau R.C.'
;
General Electric Co. Ltd.
Nuclear Materials and Propulsion Operation
Cincinnati
U.S.A. Ohio
;

# Standardized crystallographic data

_cell_length_a                           14.082
_cell_length_b                           3.604
_cell_length_c                           8.778
_cell_angle_alpha                        90
_cell_angle_beta                         100.
_cell_angle_gamma                        90
_cell_volume                             438.73
_cell_formula_units_Z                    6
_space_group_IT_number                   12
_space_group_name_H-M_alt                'C 1 2/m 1'
loop_
 _space_group_symop_id
 _space_group_symop_operation_xyz
 1 'x, y, z'
 2 '-x, -y, -z'
 3 '-x, y, -z'
 4 'x, -y, z'
 5 '1/2+x, 1/2+y, z'
 6 '1/2-x, 1/2-y, -z'
 7 '1/2-x, 1/2+y, -z'
 8 '1/2+x, 1/2-y, z'

# Atomic positions taken from type-defining entry

loop_
 _atom_type_symbol
 O
 Eu
loop_
 _atom_site_label
 _atom_site_type_symbol
 _atom_site_symmetry_multiplicity
 _atom_site_Wyckoff_symbol
 _atom_site_fract_x
 _atom_site_fract_y
 _atom_site_fract_z
 _atom_site_occupancy
 O1 O 4 i 0.0259 0 0.6562 1
 Eu1 Eu 4 i 0.13463 0 0.49003 1
 Eu2 Eu 4 i 0.18996 0 0.13782 1
 O2 O 4 i 0.2984 0 0.3738 1
 O3 O 4 i 0.3250 0 0.0265 1
 Eu3 Eu 4 i 0.46627 0 0.18794 1
 O4 O 4 i 0.6289 0 0.2864 1
 O5 O 2 a 0 0 0 1


_exptl_crystal_colour                    white
_exptl_crystal_density_meas              ?
_exptl_crystal_density_diffrn            7.99
_cell_measurement_temperature            ?
_cell_measurement_radiation              'X-rays, Fe Ka'
_cell_measurement_reflns_used            ?
_diffrn_ambient_temperature              ?
_diffrn_measurement_device               'Debye-Scherrer film'
_diffrn_measurement_device_type          ?
_diffrn_radiation_type                   ?
_diffrn_reflns_number                    ?
_exptl_absorpt_coefficient_mu            ?
_exptl_absorpt_correction_type           ?
_computing_structure_solution            ?
_refine_ls_number_parameters             ?
_refine_ls_number_reflns                 ?
_refine_ls_R_factor_gt                   ?
_refine_ls_wR_factor_gt                  ?

# Published diffraction lines

loop_
 _refln_index_h
 _refln_index_k
 _refln_index_l
 _refln_d_spacing
 _refln_intensity_meas
 2 0 -1 59.3 5
 2 0 1 50 1
 0 0 2 43.22 1
 2 0 -2 39.93 3
 2 0 2 34.09 8
 1 1 1 31.8 35
 4 0 1 30.4 35
 4 0 -2 29.69 100
 0 0 3 28.85 20
 3 1 0 28.38 35
 1 1 -2 27.72 40
 1 1 2 26.53 1
 6 0 0 23.11 9
 1 1 -3 22.7 3
 5 1 -1 22.03 8
 1 1 3 21.76 3
 6 0 1 21.42 20
 3 1 3 19.24 16
 5 1 -3 18.77 2
 5 1 2 18.58 1
 3 1 -4 18.18 1
 1 1 4 18.04 2
 0 2 0 18 5
 8 0 -1 17.61 10
 2 0 -5 17.54 2
 7 1 0 17.4 1
 4 0 4 17.08 6
 7 1 -2 17.04 12
 6 0 3 16.71 6
 5 1 -4 16.62 5
 7 1 1 16.55 8
 5 1 3 16.43 2
 3 1 4 16.4 2
 2 0 5 16.17 2
 2 2 2 15.92 1
 1 1 -5 15.79 5
 4 2 1 15.49 6
 4 2 -2 15.4 7
 0 2 3 15.27 5
 8 0 2 15.22 2
 8 0 -4 14.87 4
 2 0 -6 14.63 1
 0 0 6 14.45 3
 6 2 0 14.21 2
 10 0 -2 13.92 1
 2 0 6 13.67 1
 10 0 1 13.35 2
 7 1 -5 13.33 2
 1 1 6 13.15 1
 7 1 4 12.65 3
 8 2 -1 12.59 3
 4 2 4 12.4 2
 3 1 6 12.36 2
 6 2 3 12.25 3
 2 2 5 12.07 3
 9 1 -5 11.96 1
 2 0 7 11.82 2
 3 3 0 11.62 3
 1 3 -2 11.57 2
 5 1 -7 11.49 1
 8 2 -4 11.47 4
 6 0 6 11.4 1
 5 1 6 11.37 1
 0 2 6 11.27 2
 11 1 -4 11.25 3
 9 1 4 11.09 1
 9 1 -6 11.03 4
 2 0 -8 10.95 1
 3 3 -3 10.93 1
 2 2 6 10.9 1
 4 0 -8 10.87 1
 10 2 1 10.73 2
 3 3 3 10.62 2
 1 1 -8 10.48 1
 7 3 -2 10.21 3
 7 3 1 10.1 3
 1 3 -5 9.919 4
 12 0 -6 9.9 3

# End of data set 527221


