##############################################################################
#                                                                            #
# Eu-Sb            # Eu2Sb3                                        #  452535 #
#                                                                            #
##############################################################################
#                                                                            #
#                           Pearson's Crystal Data                           #
#      Crystal Structure Database for Inorganic Compounds (on DVD)           #
#                              Release 2017/18                               #
#                  Editors: Pierre Villars and Karin Cenzual                 #
#                                                                            #
#   Copyright (c) ASM International & Material Phases Data System (MPDS),    #
# Switzerland & National Institute for Materials Science (NIMS), Japan, 2017 #
#                   All rights reserved. Version 2017.08                     #
#                                                                            #
#   This copy of Pearson's Crystal Data is licensed to:                      #
#   University of Alberta, Chemistry Department, 1-5 Installations License         #
#                                                                            #
##############################################################################

data_452535
_audit_creation_date                     2017-12-01
_audit_creation_method
;
Pearson's Crystal Data browser
;
#_database_code_PCD                      452535

# Entry summary

_chemical_formula_structural             'Eu~2~ Sb~3~'
_chemical_formula_sum                    'Eu2 Sb3'
_chemical_name_mineral                   ?
_chemical_compound_source                ?
_chemical_name_structure_type            Sr~2~Sb~3~,mP40,14
_chemical_formula_weight                 669.2

# Bibliographic data

_publ_section_title
'The Crystal Structure and Some Properties of Eu~2~Sb~3~'                     
_journal_coden_ASTM                      JSSCBI
_journal_name_full                       'J. Solid State Chem.'
_journal_year                            1980
_journal_volume                          31
_journal_page_first                      59
_journal_page_last                       67
_journal_language                        English
loop_
 _publ_author_name
 _publ_author_address
'Chapuis G.'
;
Lausanne University
Institut de Cristallographie
Lausanne
Switzerland
;
'Hulliger F.'
;
Swiss Federal Institute of Technology (ETH)
Laboratorium f\"ur Festk\"orperphysik
Zurich
Switzerland
;
'Schmelczer R.'
;
Lausanne University
Institut de Cristallographie
Lausanne
Switzerland
;

# Standardized crystallographic data

_cell_length_a                           6.57
_cell_length_b                           12.76
_cell_length_c                           15.028
_cell_angle_alpha                        90
_cell_angle_beta                         90.04
_cell_angle_gamma                        90
_cell_volume                             1259.85
_cell_formula_units_Z                    8
_space_group_IT_number                   14
_space_group_name_H-M_alt                'P 1 21/c 1'
loop_
 _space_group_symop_id
 _space_group_symop_operation_xyz
 1 'x, y, z'
 2 '-x, -y, -z'
 3 '-x, 1/2+y, 1/2-z'
 4 'x, 1/2-y, 1/2+z'
loop_
 _atom_type_symbol
 Eu
 Sb
loop_
 _atom_site_label
 _atom_site_type_symbol
 _atom_site_symmetry_multiplicity
 _atom_site_Wyckoff_symbol
 _atom_site_fract_x
 _atom_site_fract_y
 _atom_site_fract_z
 _atom_site_occupancy
 EuI Eu 4 e 0.0034 0.2785 0.2445 1
 SbII Sb 4 e 0.036 0.033 0.1592 1
 SbIII Sb 4 e 0.0842 0.5439 0.1554 1
 SbI Sb 4 e 0.2365 0.3825 0.4257 1
 EuIV Eu 4 e 0.2465 0.1267 0.497 1
 EuIII Eu 4 e 0.2546 0.6241 0.5041 1
 SbV Sb 4 e 0.4613 0.2201 0.1579 1
 EuII Eu 4 e 0.5053 0.4711 0.2537 1
 SbIV Sb 4 e 0.5786 0.2042 0.3429 1
 SbVI Sb 4 e 0.7379 0.3687 0.0728 1


_exptl_crystal_colour                    dark
_exptl_crystal_density_meas              ?
_exptl_crystal_density_diffrn            7.06
_cell_measurement_temperature            295
_cell_measurement_radiation              'X-rays, Mo Ka1'
_cell_measurement_wavelength             0.70926
_pd_proc_wavelength                      0.70926
_cell_measurement_reflns_used            24
_diffrn_ambient_temperature              295
_diffrn_measurement_device               'automatic diffractometer'
_diffrn_measurement_device_type          'Syntex P21'
_diffrn_radiation_type                   'X-rays, Mo Ka'
_diffrn_radiation_wavelength             0.71069
_diffrn_reflns_number                    3943
_exptl_absorpt_coefficient_mu            32.4
_exptl_absorpt_correction_type           yes
_computing_structure_solution            'direct methods'
_refine_ls_number_parameters             ?
_refine_ls_number_reflns                 2414
_refine_ls_R_factor_gt                   0.064
_refine_ls_wR_factor_gt                  0.069

# Published diffraction lines

loop_
 _refln_index_h
 _refln_index_k
 _refln_index_l
 _refln_d_spacing
 _refln_intensity_meas
 1 2 0 45.77 3
 0 2 3 39.4 2
 1 2 2 39.1 3
 1 2 2 39.08 ?
 0 0 4 37.57 2
 1 2 -3 33.8 6
 1 2 3 33.78 ?
 1 0 -4 32.62 4
 1 0 4 32.6 ?
 2 0 -2 30.11 8
 2 0 2 30.09 ?
 0 4 2 29.36 8
 1 2 -4 29.05 8
 1 2 4 29.03 ?
 1 4 -1 28.19 7
 2 2 -2 27.23 6
 2 2 2 27.22 ?
 0 2 5 27.19 6
 1 4 -2 26.81 4
 2 2 -3 25.24 5
 2 2 3 25.22 ?
 1 2 -5 25.13 6
 1 2 5 25.12 ?
 0 4 4 24.32 1
 2 2 -4 23.07 1
 2 2 4 23.05 ?
 2 4 0 22.89 8
 1 2 -6 21.98 7
 1 2 6 21.97 ?
 0 6 1 21.06 1
 3 0 -2 21.03 4
 3 0 2 21.02 ?
 2 4 -3 20.82 2
 2 4 3 20.81 ?
 3 2 -1 20.52 1
 3 2 -2 19.97 2
 2 4 4 19.84 ?
 0 6 3 19.58 4
 2 4 -4 19.55 4
 2 4 4 19.54 ?
 1 2 -7 19.44 4
 1 2 7 19.43 ?
 3 2 -4 18.14 3
 3 2 4 18.13 ?
 3 4 -1 17.93 2
 0 6 5 17.36 3
 3 2 -5 17.06 3
 3 2 5 17.05 ?
 1 6 -5 16.79 3
 1 6 5 16.78 ?
 3 4 -4 16.28 2
 3 4 4 16.27 ?
 3 2 -6 15.97 3
 3 2 6 15.96 ?
 0 8 0 15.95 3
 2 2 -8 15.804 1
 2 2 8 15.795 ?
 1 2 -9 15.689 3
 1 2 9 15.684 ?
 1 8 -1 15.418 5
 2 6 -5 15.351 5
 2 6 5 15.346 ?
 0 6 7 15.109 3
 4 0 -4 15.053 2
 4 0 4 15.046 ?
 3 2 -7 14.911 4
 3 2 7 14.907 ?
 1 6 -7 14.726 4
 1 6 7 14.723 ?
 3 6 -3 14.597 4
 3 6 3 14.593 ?
 2 8 0 14.348 3
 4 4 -2 14.336 5
 4 4 2 14.333 ?

# End of data set 452535


