##############################################################################
#                                                                            #
# Eu-O-W           # Eu2W2O9 rt                                    # 1501967 #
#                                                                            #
##############################################################################
#                                                                            #
#                           Pearson's Crystal Data                           #
#      Crystal Structure Database for Inorganic Compounds (on DVD)           #
#                              Release 2017/18                               #
#                  Editors: Pierre Villars and Karin Cenzual                 #
#                                                                            #
#   Copyright (c) ASM International & Material Phases Data System (MPDS),    #
# Switzerland & National Institute for Materials Science (NIMS), Japan, 2017 #
#                   All rights reserved. Version 2017.08                     #
#                                                                            #
#   This copy of Pearson's Crystal Data is licensed to:                      #
#   University of Alberta, Chemistry Department, 1-5 Installations License         #
#                                                                            #
##############################################################################

data_1501967
_audit_creation_date                     2017-12-05
_audit_creation_method
;
Pearson's Crystal Data browser
;
#_database_code_PCD                      1501967

# Entry summary

_chemical_formula_structural             'Eu~2~ W~2~ O~9~'
_chemical_formula_sum                    'Eu2 O9 W2'
_chemical_name_mineral                   ?
_chemical_compound_source                ?
_chemical_name_structure_type            Pr~2~W~2~O~9~,mP52,14
_chemical_formula_weight                 815.6

# Bibliographic data

_publ_section_title
'Crystal Chemistry and Subsolidus Phase Relations in the System Eu-W-O'       
_journal_coden_ASTM                      JSSCBI
_journal_name_full                       'J. Solid State Chem.'
_journal_year                            1972
_journal_volume                          5
_journal_page_first                      200
_journal_page_last                       206
_journal_language                        English
loop_
 _publ_author_name
 _publ_author_address
'McCarthy G.J.'
;
Pennsylvania University Park University
Materials Research Laboratory
University Park
U.S.A. Pennsylvania
;
'Fischer R.D.'
;
Pennsylvania University Park University
Materials Research Laboratory
University Park
U.S.A. Pennsylvania
;
'Sanzgiri J.'
;
Louisiana New Orleans Tulane University
Department of Physics
New Orleans
U.S.A. Louisiana
;

# Standardized crystallographic data

_cell_length_a                           7.59
_cell_length_b                           9.732
_cell_length_c                           9.178
_cell_angle_alpha                        90
_cell_angle_beta                         107.67
_cell_angle_gamma                        90
_cell_volume                             646
_cell_formula_units_Z                    4
_space_group_IT_number                   14
_space_group_name_H-M_alt                'P 1 21/c 1'
loop_
 _space_group_symop_id
 _space_group_symop_operation_xyz
 1 'x, y, z'
 2 '-x, -y, -z'
 3 '-x, 1/2+y, 1/2-z'
 4 'x, 1/2-y, 1/2+z'

# Atomic positions taken from type-defining entry

loop_
 _atom_type_symbol
 O
 W
 Eu
loop_
 _atom_site_label
 _atom_site_type_symbol
 _atom_site_symmetry_multiplicity
 _atom_site_Wyckoff_symbol
 _atom_site_fract_x
 _atom_site_fract_y
 _atom_site_fract_z
 _atom_site_occupancy
 O1 O 4 e 0.012 0.378 0.411 1
 O2 O 4 e 0.022 0.074 0.336 1
 W1 W 4 e 0.0715 0.7505 0.2368 1
 O3 O 4 e 0.078 0.28 0.159 1
 Eu1 Eu 4 e 0.2299 0.0522 0.1537 1
 O4 O 4 e 0.257 0.683 0.142 1
 Eu2 Eu 4 e 0.2792 0.4555 0.0757 1
 O5 O 4 e 0.414 0.212 0.079 1
 O6 O 4 e 0.444 0.103 0.395 1
 O7 O 4 e 0.471 0.39 0.329 1
 W2 W 4 e 0.5729 0.2729 0.4663 1
 O8 O 4 e 0.725 0.364 0.134 1
 O9 O 4 e 0.76 0.123 0.076 1


_exptl_crystal_colour                    ?
_exptl_crystal_density_meas              ?
_exptl_crystal_density_diffrn            8.39
_cell_measurement_temperature            ?
_cell_measurement_radiation              'X-rays, Cu Ka'
_cell_measurement_wavelength             1.54178
_pd_proc_wavelength                      1.54178
_cell_measurement_reflns_used            ?
_diffrn_ambient_temperature              ?
_diffrn_measurement_device               'automatic diffractometer'
_diffrn_measurement_device_type          ?
_diffrn_radiation_type                   ?
_diffrn_reflns_number                    ?
_exptl_absorpt_coefficient_mu            ?
_exptl_absorpt_correction_type           ?
_computing_structure_solution            ?
_refine_ls_number_parameters             ?
_refine_ls_number_reflns                 ?
_refine_ls_R_factor_gt                   ?
_refine_ls_wR_factor_gt                  ?

# Published diffraction lines

loop_
 _refln_index_h
 _refln_index_k
 _refln_index_l
 _refln_d_spacing
 _refln_intensity_meas
 1 1 0 58 10
 -1 1 1 54.9 5
 0 2 0 48.6 8
 0 0 2 43.7 4
 -1 2 1 39.28 4
 2 0 0 36.15 2
 -2 1 1 35.15 3
 2 1 0 33.89 1
 -2 0 2 33.24 100
 -1 2 2 32.53 85
 -2 1 2 31.45 90
 0 3 1 30.41 20
 -2 2 1 29.8 20
 1 3 0 29.6 50
 -1 1 3 29.03 90
 0 1 3 27.93 4
 -2 2 2 27.44 15
 -1 3 2 26.05 25
 -1 2 3 25.8 12
 -3 0 2 24.49 8
 0 4 0 24.33 16
 0 4 1 23.44 7
 3 1 0 23.4 30
 -1 1 4 22.33 11
 1 2 3 21.94 6
 -2 0 4 21.87 10
 0 3 3 21.68 5
 -3 1 3 21.6 6
 -2 3 3 20.78 7
 2 4 0 20.18 10
 -3 3 1 19.94 20
 3 2 1 19.76 4
 1 4 2 19.63 25
 1 3 3 19.59 20
 -3 3 2 19.53 30
 1 0 4 19.35 7
 -3 1 4 19 18
 -4 1 1 18.53 15

# End of data set 1501967


