##############################################################################
#                                                                            #
# As-Eu            # Eu5As3 rt                                     # 1522407 #
#                                                                            #
##############################################################################
#                                                                            #
#                           Pearson's Crystal Data                           #
#      Crystal Structure Database for Inorganic Compounds (on DVD)           #
#                              Release 2017/18                               #
#                  Editors: Pierre Villars and Karin Cenzual                 #
#                                                                            #
#   Copyright (c) ASM International & Material Phases Data System (MPDS),    #
# Switzerland & National Institute for Materials Science (NIMS), Japan, 2017 #
#                   All rights reserved. Version 2017.08                     #
#                                                                            #
#   This copy of Pearson's Crystal Data is licensed to:                      #
#   University of Alberta, Chemistry Department, 1-5 Installations License         #
#                                                                            #
##############################################################################

data_1522407
_audit_creation_date                     2017-12-05
_audit_creation_method
;
Pearson's Crystal Data browser
;
#_database_code_PCD                      1522407

# Entry summary

_chemical_formula_structural             'Eu~5~ As~3~'
_chemical_formula_sum                    'As3 Eu5'
_chemical_name_mineral                   ?
_chemical_compound_source                ?
_chemical_name_structure_type            Mn~5~Si~3~,hP16,193
_chemical_formula_weight                 984.6

# Bibliographic data

_publ_section_title
;
Hydrogen in polar intermetallics. Binary pnictides of divalen metals with Mn~5~Si~3~-type structures and their isotypic ternary hydride solutions
;
_journal_coden_ASTM                      CMATEX
_journal_name_full                       'Chem. Mater.'
_journal_year                            2006
_journal_volume                          18
_journal_page_first                      4782
_journal_page_last                       4792
_journal_language                        English
loop_
 _publ_author_name
 _publ_author_address
'Leon Escamilla E.A.'
;
Iowa State Ames University of Science and Technology
Department of Chemistry
Ames
U.S.A. Iowa
;
'Corbett J.D.'
;
Iowa State Ames University of Science and Technology
Department of Chemistry
Ames
U.S.A. Iowa
;

# Standardized crystallographic data

_cell_length_a                           8.866
_cell_length_b                           8.866
_cell_length_c                           7.057
_cell_angle_alpha                        90
_cell_angle_beta                         90
_cell_angle_gamma                        120
_cell_volume                             480.4
_cell_formula_units_Z                    2
_space_group_IT_number                   193
_space_group_name_H-M_alt                'P 63/m c m'
loop_
 _space_group_symop_id
 _space_group_symop_operation_xyz
 1 'x, y, z'
 2 '-x+y, -x, 1/2-z'
 3 '-x+y, -x, z'
 4 '-x+y, y, -z'
 5 '-x+y, y, 1/2+z'
 6 '-x, -x+y, 1/2-z'
 7 '-x, -x+y, z'
 8 '-x, -y, -z'
 9 '-x, -y, 1/2+z'
 10 '-y, -x, -z'
 11 '-y, -x, 1/2+z'
 12 '-y, x-y, 1/2-z'
 13 '-y, x-y, z'
 14 'x, x-y, -z'
 15 'x, x-y, 1/2+z'
 16 'x, y, 1/2-z'
 17 'x-y, -y, 1/2-z'
 18 'x-y, -y, z'
 19 'x-y, x, -z'
 20 'x-y, x, 1/2+z'
 21 'y, -x+y, -z'
 22 'y, -x+y, 1/2+z'
 23 'y, x, 1/2-z'
 24 'y, x, z'

# Atomic positions taken from type-defining entry

loop_
 _atom_type_symbol
 Eu
 As
loop_
 _atom_site_label
 _atom_site_type_symbol
 _atom_site_symmetry_multiplicity
 _atom_site_Wyckoff_symbol
 _atom_site_fract_x
 _atom_site_fract_y
 _atom_site_fract_z
 _atom_site_occupancy
 Eu1 Eu 6 g 0.236 0 0.25 1
 As1 As 6 g 0.5991 0 0.25 1
 Eu2 Eu 4 d 0.333333 0.666667 0 1


_exptl_crystal_colour                    ?
_exptl_crystal_density_meas              ?
_exptl_crystal_density_diffrn            6.81
_cell_measurement_temperature            ?
_cell_measurement_radiation              'X-rays, Cu Ka1'
_cell_measurement_wavelength             1.54056
_pd_proc_wavelength                      1.54056
_cell_measurement_reflns_used            ?
_diffrn_ambient_temperature              ?
_diffrn_measurement_device               'automatic diffractometer'
_diffrn_measurement_device_type          ?
_diffrn_radiation_type                   ?
_diffrn_reflns_number                    ?
_exptl_absorpt_coefficient_mu            ?
_exptl_absorpt_correction_type           ?
_computing_structure_solution            ?
_refine_ls_number_parameters             ?
_refine_ls_number_reflns                 ?
_refine_ls_R_factor_gt                   ?
_refine_ls_wR_factor_gt                  ?

# End of data set 1522407


