##############################################################################
#                                                                            #
# As-Eu            # EuAs3                                         #  251449 #
#                                                                            #
##############################################################################
#                                                                            #
#                           Pearson's Crystal Data                           #
#      Crystal Structure Database for Inorganic Compounds (on DVD)           #
#                              Release 2017/18                               #
#                  Editors: Pierre Villars and Karin Cenzual                 #
#                                                                            #
#   Copyright (c) ASM International & Material Phases Data System (MPDS),    #
# Switzerland & National Institute for Materials Science (NIMS), Japan, 2017 #
#                   All rights reserved. Version 2017.08                     #
#                                                                            #
#   This copy of Pearson's Crystal Data is licensed to:                      #
#   University of Alberta, Chemistry Department, 1-5 Installations License         #
#                                                                            #
##############################################################################

data_251449
_audit_creation_date                     2017-12-01
_audit_creation_method
;
Pearson's Crystal Data browser
;
#_database_code_PCD                      251449

# Entry summary

_chemical_formula_structural             'Eu As~3~'
_chemical_formula_sum                    'As3 Eu'
_chemical_name_mineral                   ?
_chemical_compound_source                ?
_chemical_name_structure_type            SrAs~3~,mS16,12
_chemical_formula_weight                 376.7
_chemical_melting_point                  1073

# Bibliographic data

_publ_section_title
'Rare-earth pnictides: The arsenic-rich europium arsenides'                   
_journal_coden_ASTM                      JCOMAH
_journal_name_full                       'J. Less-Common Met.'
_journal_year                            1971
_journal_volume                          25
_journal_page_first                      287
_journal_page_last                       294
_journal_language                        English
loop_
 _publ_author_name
 _publ_author_address
'Ono S.'
;
National Research Council of Canada (NRCC)
Division of Chemistry
Ottawa
Canada
;
'Hui F.L.'
;
National Research Council of Canada (NRCC)
Division of Chemistry
Ottawa
Canada
;
'Despault G.J.G.'
;
National Research Council of Canada (NRCC)
Division of Chemistry
Ottawa
Canada
;
'Calvert L.D.'
;
National Research Council of Canada (NRCC)
Division of Chemistry
Ottawa
Canada
;
'Taylor J.B.'
;
National Research Council of Canada (NRCC)
Division of Chemistry
Ottawa
Canada
;

# Standardized crystallographic data

_cell_length_a                           9.5
_cell_length_b                           7.591
_cell_length_c                           5.789
_cell_angle_alpha                        90
_cell_angle_beta                         112.62
_cell_angle_gamma                        90
_cell_volume                             385.36
_cell_formula_units_Z                    4
_space_group_IT_number                   12
_space_group_name_H-M_alt                'C 1 2/m 1'
loop_
 _space_group_symop_id
 _space_group_symop_operation_xyz
 1 'x, y, z'
 2 '-x, -y, -z'
 3 '-x, y, -z'
 4 'x, -y, z'
 5 '1/2+x, 1/2+y, z'
 6 '1/2-x, 1/2-y, -z'
 7 '1/2-x, 1/2+y, -z'
 8 '1/2+x, 1/2-y, z'

# Atomic positions taken from type-defining entry

loop_
 _atom_type_symbol
 As
 Eu
loop_
 _atom_site_label
 _atom_site_type_symbol
 _atom_site_symmetry_multiplicity
 _atom_site_Wyckoff_symbol
 _atom_site_fract_x
 _atom_site_fract_y
 _atom_site_fract_z
 _atom_site_occupancy
 As1 As 8 j 0.3615 0.2676 0.1946 1
 Eu1 Eu 4 i 0.1631 0 0.3345 1
 As2 As 4 i 0.5040 0 0.2122 1


_exptl_crystal_colour                    'gray, dark'
_exptl_crystal_density_meas              6.45
_exptl_crystal_density_diffrn            6.49
_cell_measurement_temperature            299
_cell_measurement_radiation              'X-rays, Cu Ka1'
_cell_measurement_wavelength             1.54051
_pd_proc_wavelength                      1.54051
_cell_measurement_reflns_used            ?
_diffrn_ambient_temperature              ?
_diffrn_measurement_device               'Guinier film'
_diffrn_measurement_device_type          ?
_diffrn_radiation_type                   ?
_diffrn_reflns_number                    ?
_exptl_absorpt_coefficient_mu            ?
_exptl_absorpt_correction_type           ?
_computing_structure_solution            ?
_refine_ls_number_parameters             ?
_refine_ls_number_reflns                 ?
_refine_ls_R_factor_gt                   ?
_refine_ls_wR_factor_gt                  ?

# Published diffraction lines

loop_
 _refln_index_h
 _refln_index_k
 _refln_index_l
 _refln_d_spacing
 _refln_intensity_meas
 1 1 0 57.38 2
 1 1 -1 45.25 3
 2 0 -1 42.89 2
 0 2 0 38.02 3
 1 1 1 34.98 7
 0 2 1 30.97 5
 2 0 1 28.85 2
 2 2 -1 28.43 8
 2 0 -2 28.08 5
 3 1 0 27.22 7
 1 1 -2 26.94 3
 0 0 2 26.72 5
 1 3 0 24.33 2
 3 1 -2 23.79 4
 1 3 -1 23.09 2
 2 2 1 22.97 5
 2 2 -2 22.6 2
 1 1 2 22.18 4
 0 2 2 21.87 3
 4 0 -2 21.44 4
 1 3 1 21.3 5
 2 0 2 19.69 3
 3 3 -1 19.62 3
 3 3 0 19.12 5
 4 2 0 18.98 5
 4 2 -2 18.67 3
 1 1 -3 18.35 4
 3 1 -3 18.19 2
 3 3 -2 17.81 4
 5 1 -2 17.69 3
 2 2 -3 17.2 4
 1 3 2 17.1 3
 3 1 2 16.38 3
 4 2 1 16.26 4
 0 2 3 16.13 4

# End of data set 251449


