##############################################################################
#                                                                            #
# B-Eu-O           # EuB3O6                                        #  550450 #
#                                                                            #
##############################################################################
#                                                                            #
#                           Pearson's Crystal Data                           #
#      Crystal Structure Database for Inorganic Compounds (on DVD)           #
#                              Release 2017/18                               #
#                  Editors: Pierre Villars and Karin Cenzual                 #
#                                                                            #
#   Copyright (c) ASM International & Material Phases Data System (MPDS),    #
# Switzerland & National Institute for Materials Science (NIMS), Japan, 2017 #
#                   All rights reserved. Version 2017.08                     #
#                                                                            #
#   This copy of Pearson's Crystal Data is licensed to:                      #
#   University of Alberta, Chemistry Department, 1-5 Installations License         #
#                                                                            #
##############################################################################

data_550450
_audit_creation_date                     2017-12-04
_audit_creation_method
;
Pearson's Crystal Data browser
;
#_database_code_PCD                      550450

# Entry summary

_chemical_formula_structural             'Eu B~3~ O~6~'
_chemical_formula_sum                    'B3 Eu O6'
_chemical_name_mineral                   ?
_chemical_compound_source                ?
_chemical_name_structure_type            LaB~3~O~6~,mS40,15
_chemical_formula_weight                 280.4

# Bibliographic data

_publ_section_title
'The structure of rare earth metaborates'                                     
_journal_coden_ASTM                      INOMAF
_journal_name_full                       'Inorg. Mater.'
_journal_year                            1969
_journal_volume                          5
_journal_page_first                      1409
_journal_page_last                       1410
_journal_language                        English
loop_
 _publ_author_name
 _publ_author_address
'Pakhomov V.I.'
;
Russian Academy of Sciences
Kurnakov N.S. Institute of General and Inorganic Chemistry
Moscow
Russia
;
'Sil'nitskaya G.B.'
;
Russian Academy of Sciences
Kurnakov N.S. Institute of General and Inorganic Chemistry
Moscow
Russia
;
'Medvedev A.V.'
;
Russian Academy of Sciences
Kurnakov N.S. Institute of General and Inorganic Chemistry
Moscow
Russia
;
'Dzhurinskii B.F.'
;
Russian Academy of Sciences
Kurnakov N.S. Institute of General and Inorganic Chemistry
Moscow
Russia
;

# Standardized crystallographic data

_cell_length_a                           9.852
_cell_length_b                           7.85
_cell_length_c                           6.07
_cell_angle_alpha                        90
_cell_angle_beta                         128.033
_cell_angle_gamma                        90
_cell_volume                             369.8
_cell_formula_units_Z                    4
_space_group_IT_number                   15
_space_group_name_H-M_alt                'C 1 2/c 1'
loop_
 _space_group_symop_id
 _space_group_symop_operation_xyz
 1 'x, y, z'
 2 '-x, -y, -z'
 3 '-x, y, 1/2-z'
 4 'x, -y, 1/2+z'
 5 '1/2+x, 1/2+y, z'
 6 '1/2-x, 1/2-y, -z'
 7 '1/2-x, 1/2+y, 1/2-z'
 8 '1/2+x, 1/2-y, 1/2+z'

# Atomic positions taken from type-defining entry

loop_
 _atom_type_symbol
 O
 B
 Eu
loop_
 _atom_site_label
 _atom_site_type_symbol
 _atom_site_symmetry_multiplicity
 _atom_site_Wyckoff_symbol
 _atom_site_fract_x
 _atom_site_fract_y
 _atom_site_fract_z
 _atom_site_occupancy
 O1 O 8 f 0.1068 0.1148 0.2123 1
 O2 O 8 f 0.1082 0.3127 0.4993 1
 B1 B 8 f 0.2714 0.0696 0.4126 1
 O3 O 8 f 0.2982 0.0833 0.0027 1
 B2 B 4 e 0 0.2195 0.25 1
 Eu1 Eu 4 e 0 0.80085 0.25 1


_exptl_crystal_colour                    ?
_exptl_crystal_density_meas              4.74
_exptl_crystal_density_diffrn            5.04
_cell_measurement_temperature            ?
_cell_measurement_radiation              'X-rays, Mo Ka'
_cell_measurement_reflns_used            ?
_diffrn_ambient_temperature              ?
_diffrn_measurement_device               'oscillation photographs'
_diffrn_measurement_device_type          ?
_diffrn_radiation_type                   ?
_diffrn_reflns_number                    ?
_exptl_absorpt_coefficient_mu            ?
_exptl_absorpt_correction_type           ?
_computing_structure_solution            ?
_refine_ls_number_parameters             ?
_refine_ls_number_reflns                 ?
_refine_ls_R_factor_gt                   ?
_refine_ls_wR_factor_gt                  ?

# End of data set 550450


