##############################################################################
#                                                                            #
# Eu-I             # EuI2 mon                                      # 1502107 #
#                                                                            #
##############################################################################
#                                                                            #
#                           Pearson's Crystal Data                           #
#      Crystal Structure Database for Inorganic Compounds (on DVD)           #
#                              Release 2017/18                               #
#                  Editors: Pierre Villars and Karin Cenzual                 #
#                                                                            #
#   Copyright (c) ASM International & Material Phases Data System (MPDS),    #
# Switzerland & National Institute for Materials Science (NIMS), Japan, 2017 #
#                   All rights reserved. Version 2017.08                     #
#                                                                            #
#   This copy of Pearson's Crystal Data is licensed to:                      #
#   University of Alberta, Chemistry Department, 1-5 Installations License         #
#                                                                            #
##############################################################################

data_1502107
_audit_creation_date                     2017-12-05
_audit_creation_method
;
Pearson's Crystal Data browser
;
#_database_code_PCD                      1502107

# Entry summary

_chemical_formula_structural             'Eu I~2~'
_chemical_formula_sum                    'Eu I2'
_chemical_name_mineral                   ?
_chemical_compound_source                ?
_chemical_name_structure_type            EuI~2~,mP12,14
_chemical_formula_weight                 405.8

# Bibliographic data

_publ_section_title
;
Preparatory and X-Ray Diffraction Studies of the SrCl~2~-SrI~2~, EuCl~2~-EuI~2~, and EuBr~2~-EuI~2~ Systems
;
_journal_coden_ASTM                      JSSCBI
_journal_name_full                       'J. Solid State Chem.'
_journal_year                            1984
_journal_volume                          52
_journal_page_first                      156
_journal_page_last                       162
_journal_language                        English
loop_
 _publ_author_name
 _publ_author_address
'Hodorowicz E.K.'
;
Michigan East Lansing University
Department of Chemistry
East Lansing
U.S.A. Michigan
;
'Hodorowicz S.A.'
;
Michigan East Lansing University
Department of Chemistry
East Lansing
U.S.A. Michigan
;
'Eick H.A.'
;
Michigan East Lansing University
Department of Chemistry
East Lansing
U.S.A. Michigan
;

# Standardized crystallographic data

_cell_length_a                           7.619
_cell_length_b                           8.234
_cell_length_c                           7.875
_cell_angle_alpha                        90
_cell_angle_beta                         98.
_cell_angle_gamma                        90
_cell_volume                             489.2
_cell_formula_units_Z                    4
_space_group_IT_number                   14
_space_group_name_H-M_alt                'P 1 21/c 1'
loop_
 _space_group_symop_id
 _space_group_symop_operation_xyz
 1 'x, y, z'
 2 '-x, -y, -z'
 3 '-x, 1/2+y, 1/2-z'
 4 'x, 1/2-y, 1/2+z'

# Atomic positions taken from type-defining entry

loop_
 _atom_type_symbol
 I
 Eu
loop_
 _atom_site_label
 _atom_site_type_symbol
 _atom_site_symmetry_multiplicity
 _atom_site_Wyckoff_symbol
 _atom_site_fract_x
 _atom_site_fract_y
 _atom_site_fract_z
 _atom_site_occupancy
 I1 I 4 e 0.09907 0.39067 0.28423 1
 Eu1 Eu 4 e 0.28625 0.05272 0.19479 1
 I2 I 4 e 0.57653 0.26998 0.00487 1


_exptl_crystal_colour                    ?
_exptl_crystal_density_meas              ?
_exptl_crystal_density_diffrn            5.51
_cell_measurement_temperature            297(2)
_cell_measurement_radiation              X-rays
_cell_measurement_reflns_used            ?
_diffrn_ambient_temperature              ?
_diffrn_measurement_device               ?
_diffrn_measurement_device_type          ?
_diffrn_radiation_type                   ?
_diffrn_reflns_number                    ?
_exptl_absorpt_coefficient_mu            ?
_exptl_absorpt_correction_type           ?
_computing_structure_solution            ?
_refine_ls_number_parameters             ?
_refine_ls_number_reflns                 ?
_refine_ls_R_factor_gt                   ?
_refine_ls_wR_factor_gt                  ?

# End of data set 1502107


