##############################################################################
#                                                                            #
# Eu-In-P          # EuIn2P2                                       # 1522519 #
#                                                                            #
##############################################################################
#                                                                            #
#                           Pearson's Crystal Data                           #
#      Crystal Structure Database for Inorganic Compounds (on DVD)           #
#                              Release 2017/18                               #
#                  Editors: Pierre Villars and Karin Cenzual                 #
#                                                                            #
#   Copyright (c) ASM International & Material Phases Data System (MPDS),    #
# Switzerland & National Institute for Materials Science (NIMS), Japan, 2017 #
#                   All rights reserved. Version 2017.08                     #
#                                                                            #
#   This copy of Pearson's Crystal Data is licensed to:                      #
#   University of Alberta, Chemistry Department, 1-5 Installations License         #
#                                                                            #
##############################################################################

data_1522519
_audit_creation_date                     2017-12-05
_audit_creation_method
;
Pearson's Crystal Data browser
;
#_database_code_PCD                      1522519

# Entry summary

_chemical_formula_structural             'Eu In~2~ P~2~'
_chemical_formula_sum                    'Eu In2 P2'
_chemical_name_mineral                   ?
_chemical_compound_source                ?
_chemical_name_structure_type            EuIn~2~P~2~,hP10,194
_chemical_formula_weight                 443.5

# Bibliographic data

_publ_section_title
;
Colossal magnetoresistance in a rare earth Zintl compound with a new structure type: EuIn~2~P~2~
;
_journal_coden_ASTM                      CMATEX
_journal_name_full                       'Chem. Mater.'
_journal_year                            2006
_journal_volume                          18
_journal_page_first                      435
_journal_page_last                       441
_journal_language                        English
loop_
 _publ_author_name
 _publ_author_address
'Jiang J.'
;
California Davis University
Department of Chemistry
Davis
U.S.A. California
;
'Kauzlarich S.M.'
;
California Davis University
Department of Chemistry
Davis
U.S.A. California
;

# Standardized crystallographic data

_cell_length_a                           4.0829
_cell_length_b                           4.0829
_cell_length_c                           17.595
_cell_angle_alpha                        90
_cell_angle_beta                         90
_cell_angle_gamma                        120
_cell_volume                             254
_cell_formula_units_Z                    2
_space_group_IT_number                   194
_space_group_name_H-M_alt                'P 63/m m c'
loop_
 _space_group_symop_id
 _space_group_symop_operation_xyz
 1 'x, y, z'
 2 '-x+y, -x, 1/2-z'
 3 '-x+y, -x, z'
 4 '-x+y, y, 1/2-z'
 5 '-x+y, y, z'
 6 '-x, -x+y, -z'
 7 '-x, -x+y, 1/2+z'
 8 '-x, -y, -z'
 9 '-x, -y, 1/2+z'
 10 '-y, -x, 1/2-z'
 11 '-y, -x, z'
 12 '-y, x-y, 1/2-z'
 13 '-y, x-y, z'
 14 'x, x-y, 1/2-z'
 15 'x, x-y, z'
 16 'x, y, 1/2-z'
 17 'x-y, -y, -z'
 18 'x-y, -y, 1/2+z'
 19 'x-y, x, -z'
 20 'x-y, x, 1/2+z'
 21 'y, -x+y, -z'
 22 'y, -x+y, 1/2+z'
 23 'y, x, -z'
 24 'y, x, 1/2+z'
loop_
 _atom_type_symbol
 In
 P
 Eu
loop_
 _atom_site_label
 _atom_site_type_symbol
 _atom_site_symmetry_multiplicity
 _atom_site_Wyckoff_symbol
 _atom_site_fract_x
 _atom_site_fract_y
 _atom_site_fract_z
 _atom_site_occupancy
 In In 4 f 0.333333 0.666667 0.17155 1
 P P 4 f 0.333333 0.666667 0.60706 1
 Eu Eu 2 a 0 0 0 1


_exptl_crystal_colour                    ?
_exptl_crystal_density_meas              ?
_exptl_crystal_density_diffrn            5.80
_cell_measurement_temperature            90
_cell_measurement_radiation              'X-rays, Mo Ka'
_cell_measurement_wavelength             0.71073
_cell_measurement_reflns_used            ?
_diffrn_ambient_temperature              90
_diffrn_measurement_device               'automatic diffractometer'
_diffrn_measurement_device_type          'Bruker AXS APEX'
_diffrn_radiation_type                   'X-rays, Mo Ka'
_diffrn_radiation_wavelength             0.71073
_diffrn_reflns_number                    4188
_diffrn_reflns_theta_min                 2.31
_diffrn_reflns_theta_max                 33.14
_exptl_absorpt_coefficient_mu            21.636
_exptl_absorpt_correction_type           analytical
_computing_structure_solution            'direct methods'
_refine_ls_number_parameters             10
_refine_ls_number_reflns                 231
_refine_ls_R_factor_gt                   0.0176
_refine_ls_wR_factor_gt                  0.0345

# End of data set 1522519


