##############################################################################
#                                                                            #
# Fe-Ge            # Fe1.75Ge                                      #  527927 #
#                                                                            #
##############################################################################
#                                                                            #
#                           Pearson's Crystal Data                           #
#      Crystal Structure Database for Inorganic Compounds (on DVD)           #
#                              Release 2017/18                               #
#                  Editors: Pierre Villars and Karin Cenzual                 #
#                                                                            #
#   Copyright (c) ASM International & Material Phases Data System (MPDS),    #
# Switzerland & National Institute for Materials Science (NIMS), Japan, 2017 #
#                   All rights reserved. Version 2017.08                     #
#                                                                            #
#   This copy of Pearson's Crystal Data is licensed to:                      #
#   University of Alberta, Chemistry Department, 1-5 Installations License         #
#                                                                            #
##############################################################################

data_527927
_audit_creation_date                     2017-12-01
_audit_creation_method
;
Pearson's Crystal Data browser
;
#_database_code_PCD                      527927

# Entry summary

_chemical_formula_structural             'Fe~2~ Ge'
_chemical_formula_sum                    'Fe2 Ge'
_chemical_name_mineral                   ?
_chemical_compound_source                ?
_chemical_name_structure_type            Co~1.75~Ge,hP6,194
_chemical_formula_weight                 184.3

# Bibliographic data

_publ_section_title
;
Etude magn\'etique et structurale des solutions solides de germanium dans le fer, dans le cobalt et dans le nickel et des germaniures du type M~3~Ge et M~2~Ge
;
_journal_coden_ASTM                      ANCPAC
_journal_name_full                       'Ann. Chim. (Paris)'
_journal_year                            1963
_journal_volume                          8
_journal_page_first                      85
_journal_page_last                       116
_journal_language                        French
loop_
 _publ_author_name
 _publ_author_address
'Lecocq P.'
;
Paris University
Paris
France
;

# Standardized crystallographic data

_cell_length_a                           4.01
_cell_length_b                           4.01
_cell_length_c                           5.003
_cell_angle_alpha                        90
_cell_angle_beta                         90
_cell_angle_gamma                        120
_cell_volume                             69.67
_cell_formula_units_Z                    2
_space_group_IT_number                   194
_space_group_name_H-M_alt                'P 63/m m c'
loop_
 _space_group_symop_id
 _space_group_symop_operation_xyz
 1 'x, y, z'
 2 '-x+y, -x, 1/2-z'
 3 '-x+y, -x, z'
 4 '-x+y, y, 1/2-z'
 5 '-x+y, y, z'
 6 '-x, -x+y, -z'
 7 '-x, -x+y, 1/2+z'
 8 '-x, -y, -z'
 9 '-x, -y, 1/2+z'
 10 '-y, -x, 1/2-z'
 11 '-y, -x, z'
 12 '-y, x-y, 1/2-z'
 13 '-y, x-y, z'
 14 'x, x-y, 1/2-z'
 15 'x, x-y, z'
 16 'x, y, 1/2-z'
 17 'x-y, -y, -z'
 18 'x-y, -y, 1/2+z'
 19 'x-y, x, -z'
 20 'x-y, x, 1/2+z'
 21 'y, -x+y, -z'
 22 'y, -x+y, 1/2+z'
 23 'y, x, -z'
 24 'y, x, 1/2+z'
loop_
 _atom_type_symbol
 Fe
 Ge
loop_
 _atom_site_label
 _atom_site_type_symbol
 _atom_site_symmetry_multiplicity
 _atom_site_Wyckoff_symbol
 _atom_site_fract_x
 _atom_site_fract_y
 _atom_site_fract_z
 _atom_site_occupancy
 FeII Fe 2 d 0.333333 0.666667 0.75 1
 Ge Ge 2 c 0.333333 0.666667 0.25 1
 FeI Fe 2 a 0 0 0 1


_exptl_crystal_colour                    ?
_exptl_crystal_density_meas              ?
_exptl_crystal_density_diffrn            8.78
_cell_measurement_temperature            ?
_cell_measurement_radiation              X-rays
_cell_measurement_reflns_used            ?
_diffrn_ambient_temperature              ?
_diffrn_measurement_device               film
_diffrn_measurement_device_type          ?
_diffrn_radiation_type                   X-rays
_diffrn_reflns_number                    ?
_exptl_absorpt_coefficient_mu            ?
_exptl_absorpt_correction_type           ?
_computing_structure_solution            'starting values from the literature'
_refine_ls_number_parameters             ?
_refine_ls_number_reflns                 ?
_refine_ls_R_factor_gt                   ?
_refine_ls_wR_factor_gt                  ?
_pd_proc_ls_proof_R_factor               ?
_pd_proc_ls_proof_wR_factor              ?
_refine_ls_R_I_factor                    ?

# Published diffraction lines

loop_
 _refln_index_h
 _refln_index_k
 _refln_index_l
 _refln_d_spacing
 _refln_intensity_meas
 1 0 1 28.4 5
 0 0 2 24.9 10
 1 0 2 20.18 80
 1 1 0 19.84 100
 0 0 3 16.82 10
 2 0 1 16.24 3
 1 1 2 15.65 5
 1 0 3 14.93 1
 2 0 2 14.17 60
 2 1 1 12.74 1
 0 0 4 12.48 10
 2 1 2 11.64 20
 3 0 0 11.55 40
 1 1 4 10.58 40

# End of data set 527927


