##############################################################################
#                                                                            #
# Fe-Ga-S          # Fe2Ga2S5 rt                                   #  461811 #
#                                                                            #
##############################################################################
#                                                                            #
#                           Pearson's Crystal Data                           #
#      Crystal Structure Database for Inorganic Compounds (on DVD)           #
#                              Release 2017/18                               #
#                  Editors: Pierre Villars and Karin Cenzual                 #
#                                                                            #
#   Copyright (c) ASM International & Material Phases Data System (MPDS),    #
# Switzerland & National Institute for Materials Science (NIMS), Japan, 2017 #
#                   All rights reserved. Version 2017.08                     #
#                                                                            #
#   This copy of Pearson's Crystal Data is licensed to:                      #
#   University of Alberta, Chemistry Department, 1-5 Installations License         #
#                                                                            #
##############################################################################

data_461811
_audit_creation_date                     2017-12-01
_audit_creation_method
;
Pearson's Crystal Data browser
;
#_database_code_PCD                      461811

# Entry summary

_chemical_formula_structural             'Fe~2~ Ga~2~ S~5~'
_chemical_formula_sum                    'Fe2 Ga2 S5'
_chemical_name_mineral                   ?
_chemical_compound_source                ?
_chemical_name_structure_type            Fe~2~Ga~2~S~5~,hP18,194
_chemical_formula_weight                 411.4

# Bibliographic data

_publ_section_title
'Syst\`eme Ga~2~S~3~-FeS. Diagramme de phase - Etude cristallographique'      
_journal_coden_ASTM                      MRBUAC
_journal_name_full                       'Mater. Res. Bull.'
_journal_year                            1981
_journal_volume                          16
_journal_page_first                      1375
_journal_page_last                       1384
_journal_language                        French
loop_
 _publ_author_name
 _publ_author_address
'Pardo M.I.'
;
Paris University
Laboratoire de Chimie Min\'erale Structurale
Paris
France
;
'Dogguy Smiri L.'
;
Paris University
Laboratoire de Chimie Min\'erale Structurale
Paris
France
;
'Flahaut J.'
;
Paris University
Laboratoire de Chimie Min\'erale Structurale
Paris
France
;
'Dung N.H.'
;
Paris V Ren\'e Descartes University
Laboratoire de Chimie Min\'erale Structurale
Paris
France
;

# Standardized crystallographic data

_cell_length_a                           3.67
_cell_length_b                           3.67
_cell_length_c                           30
_cell_angle_alpha                        90
_cell_angle_beta                         90
_cell_angle_gamma                        120
_cell_volume                             349.9
_cell_formula_units_Z                    2
_space_group_IT_number                   194
_space_group_name_H-M_alt                'P 63/m m c'
loop_
 _space_group_symop_id
 _space_group_symop_operation_xyz
 1 'x, y, z'
 2 '-x+y, -x, 1/2-z'
 3 '-x+y, -x, z'
 4 '-x+y, y, 1/2-z'
 5 '-x+y, y, z'
 6 '-x, -x+y, -z'
 7 '-x, -x+y, 1/2+z'
 8 '-x, -y, -z'
 9 '-x, -y, 1/2+z'
 10 '-y, -x, 1/2-z'
 11 '-y, -x, z'
 12 '-y, x-y, 1/2-z'
 13 '-y, x-y, z'
 14 'x, x-y, 1/2-z'
 15 'x, x-y, z'
 16 'x, y, 1/2-z'
 17 'x-y, -y, -z'
 18 'x-y, -y, 1/2+z'
 19 'x-y, x, -z'
 20 'x-y, x, 1/2+z'
 21 'y, -x+y, -z'
 22 'y, -x+y, 1/2+z'
 23 'y, x, -z'
 24 'y, x, 1/2+z'

# Atomic positions taken from type-defining entry

loop_
 _atom_type_symbol
 S
 Ga
 Fe
loop_
 _atom_site_label
 _atom_site_type_symbol
 _atom_site_symmetry_multiplicity
 _atom_site_Wyckoff_symbol
 _atom_site_fract_x
 _atom_site_fract_y
 _atom_site_fract_z
 _atom_site_occupancy
 S1 S 4 f 0.333333 0.666667 0.0532 1
 Ga1 Ga 4 f 0.333333 0.666667 0.5845 1
 S2 S 4 f 0.333333 0.666667 0.66 1
 Fe1 Fe 4 e 0 0 0.2012 1
 S3 S 2 c 0.333333 0.666667 0.25 1


_exptl_crystal_colour                    ?
_exptl_crystal_density_meas              ?
_exptl_crystal_density_diffrn            3.90
_cell_measurement_temperature            ?
_cell_measurement_radiation              X-rays
_cell_measurement_reflns_used            ?
_diffrn_ambient_temperature              ?
_diffrn_measurement_device               'Guinier-Lenne film'
_diffrn_measurement_device_type          ?
_diffrn_radiation_type                   ?
_diffrn_reflns_number                    ?
_exptl_absorpt_coefficient_mu            ?
_exptl_absorpt_correction_type           ?
_computing_structure_solution            ?
_refine_ls_number_parameters             ?
_refine_ls_number_reflns                 ?
_refine_ls_R_factor_gt                   ?
_refine_ls_wR_factor_gt                  ?

# Published diffraction lines

loop_
 _refln_index_h
 _refln_index_k
 _refln_index_l
 _refln_d_spacing
 _refln_intensity_meas
 0 0 6 50.28 7
 0 0 8 37.51 8
 1 0 3 31.57 2
 0 0 10 31.08 4
 1 0 4 30.25 4
 1 0 5 29.23 3
 1 0 6 28.03 4
 1 0 7 26.77 4
 1 0 8 24.99 4
 1 0 10 22.94 5
 1 0 11 21.74 5
 1 0 13 19.57 6

# End of data set 461811


