##############################################################################
#                                                                            #
# Fe-P             # Fe2P                                          # 1010942 #
#                                                                            #
##############################################################################
#                                                                            #
#                           Pearson's Crystal Data                           #
#      Crystal Structure Database for Inorganic Compounds (on DVD)           #
#                              Release 2017/18                               #
#                  Editors: Pierre Villars and Karin Cenzual                 #
#                                                                            #
#   Copyright (c) ASM International & Material Phases Data System (MPDS),    #
# Switzerland & National Institute for Materials Science (NIMS), Japan, 2017 #
#                   All rights reserved. Version 2017.08                     #
#                                                                            #
#   This copy of Pearson's Crystal Data is licensed to:                      #
#   University of Alberta, Chemistry Department, 1-5 Installations License         #
#                                                                            #
##############################################################################

data_1010942
_audit_creation_date                     2017-12-04
_audit_creation_method
;
Pearson's Crystal Data browser
;
#_database_code_PCD                      1010942

# Entry summary

_chemical_formula_structural             'Fe~2~ P'
_chemical_formula_sum                    'Fe2 P'
_chemical_name_mineral                   ?
_chemical_compound_source                ?
_chemical_name_structure_type            Fe~2~P,hP9,189
_chemical_formula_weight                 142.7

# Bibliographic data

_publ_section_title
;
X-ray studies on the binary systems of iron with nitrogen, phosphorus, arsenic, antimony and bismuth
;
_journal_coden_ASTM                      NOARAM
_journal_name_full                       'Nova Acta Regiae Soc. Sci. Ups.'
_journal_year                            1929
_journal_volume                          7
_journal_issue                           1
_journal_page_first                      1
_journal_page_last                       95
_journal_language                        English
loop_
 _publ_author_name
 _publ_author_address
'H\"agg G.'
;
Uppsala University
Uppsala
Sweden
;

# Standardized crystallographic data

_cell_length_a                           5.852
_cell_length_b                           5.852
_cell_length_c                           3.453
_cell_angle_alpha                        90
_cell_angle_beta                         90
_cell_angle_gamma                        120
_cell_volume                             102.4
_cell_formula_units_Z                    3
_space_group_IT_number                   189
_space_group_name_H-M_alt                'P -6 2 m'
loop_
 _space_group_symop_id
 _space_group_symop_operation_xyz
 1 'x, y, z'
 2 '-x+y, -x, -z'
 3 '-x+y, -x, z'
 4 '-x, -x+y, -z'
 5 '-x, -x+y, z'
 6 '-y, x-y, -z'
 7 '-y, x-y, z'
 8 'x, y, -z'
 9 'x-y, -y, -z'
 10 'x-y, -y, z'
 11 'y, x, -z'
 12 'y, x, z'

# Atomic positions taken from type-defining entry

loop_
 _atom_type_symbol
 Fe
 P
loop_
 _atom_site_label
 _atom_site_type_symbol
 _atom_site_symmetry_multiplicity
 _atom_site_Wyckoff_symbol
 _atom_site_fract_x
 _atom_site_fract_y
 _atom_site_fract_z
 _atom_site_occupancy
 Fe1 Fe 3 g 0.25683 0 0.5 1
 Fe2 Fe 3 f 0.59461 0 0 1
 P1 P 2 d 0.333333 0.666667 0.5 1
 P2 P 1 a 0 0 0 1


_exptl_crystal_colour                    ?
_exptl_crystal_density_meas              6.83
_exptl_crystal_density_diffrn            6.94
_cell_measurement_temperature            ?
_cell_measurement_radiation              'X-rays, Fe K'
_cell_measurement_reflns_used            ?
_diffrn_ambient_temperature              ?
_diffrn_measurement_device               film
_diffrn_measurement_device_type          ?
_diffrn_radiation_type                   ?
_diffrn_reflns_number                    ?
_exptl_absorpt_coefficient_mu            ?
_exptl_absorpt_correction_type           ?
_computing_structure_solution            ?
_refine_ls_number_parameters             ?
_refine_ls_number_reflns                 ?
_refine_ls_R_factor_gt                   ?
_refine_ls_wR_factor_gt                  ?

# Published diffraction lines

loop_
 _refln_index_h
 _refln_index_k
 _refln_index_l
 _refln_d_spacing
 _refln_intensity_meas
 1 1 0 1.08 3
 1 0 1 1.145 3
 2 0 0 1.445 3
 2 0 0 1.19 2
 1 1 1 1.865 7
 1 1 1 1.535 5
 2 0 1 2.23 7
 2 0 1 1.835 3
 ? ? ? 2.34 2
 2 1 0 2.09 3
 2 1 0 2.55 7
 0 0 2 3.145 7
 3 0 0 3.27 7
 3 0 0 2.695 2
 2 1 1 3.335 7
 2 1 1 2.745 2
 2 2 0 4.37 2
 3 1 0 4.74 5
 2 2 1 5.15 3
 3 1 1 5.525 5
 3 1 1 4.54 2
 3 1 1 5.51 5
 2 1 2 5.675 7
 2 1 2 5.7 7
 2 1 2 4.685 3
 4 0 0 5.81 3
 4 0 0 5.835 3
 3 0 2 6.405 7
 3 0 2 5.28 3
 3 0 2 6.435 7
 4 0 1 6.595 3
 4 0 1 6.62 3
 3 2 0 6.915 3
 2 2 2 7.495 2
 2 2 2 7.525 2
 4 1 0 7.635 3
 4 1 0 7.67 3
 3 2 1 7.685 7
 3 2 1 7.72 7
 3 2 1 6.335 3
 3 1 2 7.865 3
 3 1 2 7.895 3
 1 1 3 8.15 3
 1 1 3 8.185 3
 4 1 1 8.445 3
 4 1 1 8.415 3
 2 0 3 8.54 5
 2 0 3 8.51 5
 4 0 2 8.945 3
 4 0 2 8.985 3
 5 0 0 9.085 3
 5 0 0 9.12 3
 2 1 3 9.6 3
 2 1 3 9.635 3

# End of data set 1010942


