##############################################################################
#                                                                            #
# Fe-O-P           # Fe3[PO4]2 gra                                 # 1520505 #
#                                                                            #
##############################################################################
#                                                                            #
#                           Pearson's Crystal Data                           #
#      Crystal Structure Database for Inorganic Compounds (on DVD)           #
#                              Release 2017/18                               #
#                  Editors: Pierre Villars and Karin Cenzual                 #
#                                                                            #
#   Copyright (c) ASM International & Material Phases Data System (MPDS),    #
# Switzerland & National Institute for Materials Science (NIMS), Japan, 2017 #
#                   All rights reserved. Version 2017.08                     #
#                                                                            #
#   This copy of Pearson's Crystal Data is licensed to:                      #
#   University of Alberta, Chemistry Department, 1-5 Installations License         #
#                                                                            #
##############################################################################

data_1520505
_audit_creation_date                     2017-12-05
_audit_creation_method
;
Pearson's Crystal Data browser
;
#_database_code_PCD                      1520505

# Entry summary

_chemical_formula_structural             'Fe~3~ [P O~4~]~2~'
_chemical_formula_sum                    'Fe3 O8 P2'
_chemical_name_mineral                   graftonite
_chemical_compound_source                ?
_chemical_name_structure_type
(Ca~0.13~Mn~0.27~Fe~0.60~)~3~[PO~4~]~2~,mP52,14                               
_chemical_formula_weight                 357.5

# Bibliographic data

_publ_section_title
;
Determination of the cation distribution in NiFe~2~(PO~4~)~2~ using resonant X-ray and neutron powder diffraction
;
_journal_coden_ASTM                      JACGAR
_journal_name_full                       'J. Appl. Crystallogr.'
_journal_year                            1995
_journal_volume                          28
_journal_page_first                      494
_journal_page_last                       502
_journal_language                        English
loop_
 _publ_author_name
 _publ_author_address
'Warner J.K.'
;
Oxford University
Department of Chemical Crystallography
Oxford
United Kingdom
;
'Cheetham A.K.'
;
California Santa Barbara University
Department of Materials
Santa Barbara
U.S.A. California
;
'Cox D.E.'
;
Brookhaven National Laboratory
Upton
U.S.A. New York
;

# Standardized crystallographic data

_cell_length_a                           8.8839
_cell_length_b                           11.1738
_cell_length_c                           6.1459
_cell_angle_alpha                        90
_cell_angle_beta                         99.357
_cell_angle_gamma                        90
_cell_volume                             601.97
_cell_formula_units_Z                    4
_space_group_IT_number                   14
_space_group_name_H-M_alt                'P 1 21/c 1'
loop_
 _space_group_symop_id
 _space_group_symop_operation_xyz
 1 'x, y, z'
 2 '-x, -y, -z'
 3 '-x, 1/2+y, 1/2-z'
 4 'x, 1/2-y, 1/2+z'
loop_
 _atom_type_symbol
 O
 P
 Fe
loop_
 _atom_site_label
 _atom_site_type_symbol
 _atom_site_symmetry_multiplicity
 _atom_site_Wyckoff_symbol
 _atom_site_fract_x
 _atom_site_fract_y
 _atom_site_fract_z
 _atom_site_occupancy
 O2 O 4 e 0.0196 0.3161 0.1706 1
 O8 O 4 e 0.0274 0.0412 0.2637 1
 P2 P 4 e 0.1052 0.9116 0.3042 1
 Fe3 Fe 4 e 0.1347 0.195 0.3844 1
 O4 O 4 e 0.2019 0.876 0.1168 1
 Fe2 Fe 4 e 0.2224 0.5788 0.3279 1
 O6 O 4 e 0.2252 0.5887 0.0294 1
 O5 O 4 e 0.2714 0.2233 0.1336 1
 O7 O 4 e 0.3725 0.4386 0.4025 1
 P1 P 4 e 0.4054 0.1342 0.1083 1
 O1 O 4 e 0.4294 0.0615 0.3244 1
 Fe1 Fe 4 e 0.5697 0.384 0.1337 1
 O3 O 4 e 0.5541 0.2049 0.1026 1


_exptl_crystal_colour                    ?
_exptl_crystal_density_meas              ?
_exptl_crystal_density_diffrn            3.94
_cell_measurement_temperature            ?
_cell_measurement_radiation              'X-rays, synchrotron'
_cell_measurement_wavelength             1.7434
_pd_proc_wavelength                      1.7434
_cell_measurement_reflns_used            ?
_diffrn_ambient_temperature              ?
_diffrn_measurement_device               'automatic diffractometer'
_diffrn_measurement_device_type
'United Kingdom, Cheshire, Daresbury Synchrotron Radiation Source, 8.3 station'
_diffrn_radiation_type                   'X-rays, synchrotron'
_diffrn_radiation_wavelength             1.7434
_diffrn_reflns_number                    321
_exptl_absorpt_coefficient_mu            ?
_exptl_absorpt_correction_type           ?
_computing_structure_solution            'starting values from the literature'
_refine_ls_number_parameters             53
_refine_ls_number_reflns                 ?
_refine_ls_R_factor_gt                   ?
_refine_ls_wR_factor_gt                  ?
_pd_proc_ls_proof_R_factor               0.0164
_pd_proc_ls_proof_wR_factor              0.0205
_refine_ls_R_I_factor                    0.126

# End of data set 1520505


