##############################################################################
#                                                                            #
# Fe-Ga            # Fe3Ga4                                        #  261492 #
#                                                                            #
##############################################################################
#                                                                            #
#                           Pearson's Crystal Data                           #
#      Crystal Structure Database for Inorganic Compounds (on DVD)           #
#                              Release 2017/18                               #
#                  Editors: Pierre Villars and Karin Cenzual                 #
#                                                                            #
#   Copyright (c) ASM International & Material Phases Data System (MPDS),    #
# Switzerland & National Institute for Materials Science (NIMS), Japan, 2017 #
#                   All rights reserved. Version 2017.08                     #
#                                                                            #
#   This copy of Pearson's Crystal Data is licensed to:                      #
#   University of Alberta, Chemistry Department, 1-5 Installations License         #
#                                                                            #
##############################################################################

data_261492
_audit_creation_date                     2017-12-01
_audit_creation_method
;
Pearson's Crystal Data browser
;
#_database_code_PCD                      261492

# Entry summary

_chemical_formula_structural             'Fe~3~ Ga~4~'
_chemical_formula_sum                    'Fe3 Ga4'
_chemical_name_mineral                   ?
_chemical_compound_source                ?
_chemical_name_structure_type            Fe~3~Ga~4~,mS42,12
_chemical_formula_weight                 446.4
_chemical_melting_point                  1153

# Bibliographic data

_publ_section_title
;
Zum Aufbau einiger zu T^5^-Ga homologer und quasihomologer Systeme. II. Die Systeme Chrom-Gallium, Mangan-Gallium und Eisen-Gallium sowie einige Bemerkungen zum Aufbau der Systeme Vanadium-Antimon und Vanadium-Arsen
;
_journal_coden_ASTM                      ZEMTAE
_journal_name_full                       'Z. Metallkd.'
_journal_year                            1965
_journal_volume                          56
_journal_page_first                      523
_journal_page_last                       530
_journal_language                        German
loop_
 _publ_author_name
 _publ_author_address
'Meissner H.G.'
;
Max Planck Society
Max Planck Institut f\"ur Metallforschung
Stuttgart
Germany
;
'Schubert K.'
;
Max Planck Society
Max Planck Institut f\"ur Metallforschung
Stuttgart
Germany
;

# Standardized crystallographic data

_cell_length_a                           9.79
_cell_length_b                           7.678
_cell_length_c                           7.617
_cell_angle_alpha                        90
_cell_angle_beta                         106.4
_cell_angle_gamma                        90
_cell_volume                             549.26
_cell_formula_units_Z                    6
_space_group_IT_number                   12
_space_group_name_H-M_alt                'C 1 2/m 1'
loop_
 _space_group_symop_id
 _space_group_symop_operation_xyz
 1 'x, y, z'
 2 '-x, -y, -z'
 3 '-x, y, -z'
 4 'x, -y, z'
 5 '1/2+x, 1/2+y, z'
 6 '1/2-x, 1/2-y, -z'
 7 '1/2-x, 1/2+y, -z'
 8 '1/2+x, 1/2-y, z'

# Atomic positions taken from type-defining entry

loop_
 _atom_type_symbol
 Ga
 Fe
loop_
 _atom_site_label
 _atom_site_type_symbol
 _atom_site_symmetry_multiplicity
 _atom_site_Wyckoff_symbol
 _atom_site_fract_x
 _atom_site_fract_y
 _atom_site_fract_z
 _atom_site_occupancy
 Ga1 Ga 8 j 0.1082 0.2966 0.1509 1
 Ga2 Ga 8 j 0.3520 0.1857 0.4501 1
 Fe1 Fe 8 j 0.3642 0.2984 0.1521 1
 Ga3 Ga 4 i 0.0419 0 0.3482 1
 Fe2 Fe 4 i 0.2237 0 0.6374 1
 Ga4 Ga 4 i 0.2689 0 0.0844 1
 Fe3 Fe 4 i 0.4954 0 0.3106 1
 Fe4 Fe 2 a 0 0 0 1


_exptl_crystal_colour                    ?
_exptl_crystal_density_meas              ?
_exptl_crystal_density_diffrn            8.10
_cell_measurement_temperature            ?
_cell_measurement_radiation              'X-rays, Cu Ka'
_cell_measurement_reflns_used            ?
_diffrn_ambient_temperature              ?
_diffrn_measurement_device               ?
_diffrn_measurement_device_type          ?
_diffrn_radiation_type                   ?
_diffrn_reflns_number                    ?
_exptl_absorpt_coefficient_mu            ?
_exptl_absorpt_correction_type           ?
_computing_structure_solution            ?
_refine_ls_number_parameters             ?
_refine_ls_number_reflns                 ?
_refine_ls_R_factor_gt                   ?
_refine_ls_wR_factor_gt                  ?

# End of data set 261492


