##############################################################################
#                                                                            #
# Fe-Se            # Fe3Se4 rt                                     #  452825 #
#                                                                            #
##############################################################################
#                                                                            #
#                           Pearson's Crystal Data                           #
#      Crystal Structure Database for Inorganic Compounds (on DVD)           #
#                              Release 2017/18                               #
#                  Editors: Pierre Villars and Karin Cenzual                 #
#                                                                            #
#   Copyright (c) ASM International & Material Phases Data System (MPDS),    #
# Switzerland & National Institute for Materials Science (NIMS), Japan, 2017 #
#                   All rights reserved. Version 2017.08                     #
#                                                                            #
#   This copy of Pearson's Crystal Data is licensed to:                      #
#   University of Alberta, Chemistry Department, 1-5 Installations License         #
#                                                                            #
##############################################################################

data_452825
_audit_creation_date                     2017-12-01
_audit_creation_method
;
Pearson's Crystal Data browser
;
#_database_code_PCD                      452825

# Entry summary

_chemical_formula_structural             'Fe~3~ Se~4~'
_chemical_formula_sum                    'Fe3 Se4'
_chemical_name_mineral                   ?
_chemical_compound_source                ?
_chemical_name_structure_type            Cr~3~S~4~,mS14,12
_chemical_formula_weight                 483.4

# Bibliographic data

_publ_section_title
'The Magnetic Structure of Fe~3~Se~4~'                                        
_journal_coden_ASTM                      ACSAA4
_journal_name_full                       'Acta Chem. Scand.'
_journal_year                            1970
_journal_volume                          24
_journal_page_first                      2435
_journal_page_last                       2439
_journal_language                        English
loop_
 _publ_author_name
 _publ_author_address
'Andresen A.F.'
;
Joint Establishment for Nuclear Energy Research
Kjeller
Norway
;
'Van Laar B.'
;
Netherlands Reactor Center
Petten
Netherlands
;

# Standardized crystallographic data

_cell_length_a                           12.7037
_cell_length_b                           3.541
_cell_length_c                           6.208
_cell_angle_alpha                        90
_cell_angle_beta                         117.431
_cell_angle_gamma                        90
_cell_volume                             247.86
_cell_formula_units_Z                    2
_space_group_IT_number                   12
_space_group_name_H-M_alt                'C 1 2/m 1'
loop_
 _space_group_symop_id
 _space_group_symop_operation_xyz
 1 'x, y, z'
 2 '-x, -y, -z'
 3 '-x, y, -z'
 4 'x, -y, z'
 5 '1/2+x, 1/2+y, z'
 6 '1/2-x, 1/2-y, -z'
 7 '1/2-x, 1/2+y, -z'
 8 '1/2+x, 1/2-y, z'
loop_
 _atom_type_symbol
 Se
 Fe
loop_
 _atom_site_label
 _atom_site_type_symbol
 _atom_site_symmetry_multiplicity
 _atom_site_Wyckoff_symbol
 _atom_site_fract_x
 _atom_site_fract_y
 _atom_site_fract_z
 _atom_site_occupancy
 SeII Se 4 i 0.1111 0 0.4477 1
 FeII Fe 4 i 0.2571 0 0.3002 1
 SeI Se 4 i 0.3623 0 0.0253 1
 FeI Fe 2 a 0 0 0 1


_exptl_crystal_colour                    ?
_exptl_crystal_density_meas              ?
_exptl_crystal_density_diffrn            6.48
_cell_measurement_temperature            372
_cell_measurement_radiation              neutrons
_cell_measurement_wavelength             2.582
_pd_proc_wavelength                      2.582
_cell_measurement_reflns_used            ?
_diffrn_ambient_temperature              372
_diffrn_measurement_device               'automatic diffractometer'
_diffrn_measurement_device_type
'Netherlands, Petten, Energy Research Centre, HFR reactor'                    
_diffrn_radiation_type                   neutrons
_diffrn_radiation_wavelength             2.582
_diffrn_reflns_number                    ?
_exptl_absorpt_coefficient_mu            ?
_exptl_absorpt_correction_type           ?
_computing_structure_solution            'starting values from the literature'
_refine_ls_number_parameters             ?
_refine_ls_number_reflns                 ?
_refine_ls_R_factor_gt                   ?
_refine_ls_wR_factor_gt                  ?
_pd_proc_ls_proof_R_factor               ?
_pd_proc_ls_proof_wR_factor              ?
_refine_ls_R_I_factor                    ?

# End of data set 452825


