##############################################################################
#                                                                            #
# C-Fe             # Fe5C2 m-mon                                   #  527934 #
#                                                                            #
##############################################################################
#                                                                            #
#                           Pearson's Crystal Data                           #
#      Crystal Structure Database for Inorganic Compounds (on DVD)           #
#                              Release 2017/18                               #
#                  Editors: Pierre Villars and Karin Cenzual                 #
#                                                                            #
#   Copyright (c) ASM International & Material Phases Data System (MPDS),    #
# Switzerland & National Institute for Materials Science (NIMS), Japan, 2017 #
#                   All rights reserved. Version 2017.08                     #
#                                                                            #
#   This copy of Pearson's Crystal Data is licensed to:                      #
#   University of Alberta, Chemistry Department, 1-5 Installations License         #
#                                                                            #
##############################################################################

data_527934
_audit_creation_date                     2017-12-01
_audit_creation_method
;
Pearson's Crystal Data browser
;
#_database_code_PCD                      527934

# Entry summary

_chemical_formula_structural             'Fe~5~ C~2~'
_chemical_formula_sum                    'C2 Fe5'
_chemical_name_mineral                   ?
_chemical_compound_source                ?
_chemical_name_structure_type            Mn~5~C~2~,mS28,15
_chemical_formula_weight                 303.3

# Bibliographic data

_publ_section_title
;
Contribution a l'\'etude magn\'etique et structurale du carbure de H\"agg
;
_journal_coden_ASTM                      ANCPAC
_journal_name_full                       'Ann. Chim. (Paris)'
_journal_year                            1967
_journal_volume                          2
_journal_page_first                      103
_journal_page_last                       122
_journal_language                        French
loop_
 _publ_author_name
 _publ_author_address
'S\'enateur J.P.'
;
Centre National de la Recherche Scientifique (CNRS)
Centre d'Etudes de Chimie M\'etallurgique
Vitry-sur-Seine
France
;

# Standardized crystallographic data

_cell_length_a                           11.563
_cell_length_b                           4.573
_cell_length_c                           5.058
_cell_angle_alpha                        90
_cell_angle_beta                         97.73
_cell_angle_gamma                        90
_cell_volume                             265.02
_cell_formula_units_Z                    4
_space_group_IT_number                   15
_space_group_name_H-M_alt                'C 1 2/c 1'
loop_
 _space_group_symop_id
 _space_group_symop_operation_xyz
 1 'x, y, z'
 2 '-x, -y, -z'
 3 '-x, y, 1/2-z'
 4 'x, -y, 1/2+z'
 5 '1/2+x, 1/2+y, z'
 6 '1/2-x, 1/2-y, -z'
 7 '1/2-x, 1/2+y, 1/2-z'
 8 '1/2+x, 1/2-y, 1/2+z'
loop_
 _atom_type_symbol
 C
 Fe
loop_
 _atom_site_label
 _atom_site_type_symbol
 _atom_site_symmetry_multiplicity
 _atom_site_Wyckoff_symbol
 _atom_site_fract_x
 _atom_site_fract_y
 _atom_site_fract_z
 _atom_site_occupancy
 C C 8 f 0.106 0.189 0.577 1
 FeII Fe 8 f 0.2127 0.0726 0.3138 1
 FeI Fe 8 f 0.4042 0.0952 0.0787 1
 FeIII Fe 4 e 0 0.0725 0.25 1


_exptl_crystal_colour                    ?
_exptl_crystal_density_meas              ?
_exptl_crystal_density_diffrn            7.60
_cell_measurement_temperature            ?
_cell_measurement_radiation              X-rays
_cell_measurement_reflns_used            ?
_diffrn_ambient_temperature              ?
_diffrn_measurement_device               ?
_diffrn_measurement_device_type          ?
_diffrn_radiation_type                   X-rays
_diffrn_reflns_number                    ?
_exptl_absorpt_coefficient_mu            ?
_exptl_absorpt_correction_type           ?
_computing_structure_solution            'starting values from the literature'
_refine_ls_number_parameters             ?
_refine_ls_number_reflns                 ?
_refine_ls_R_factor_gt                   ?
_refine_ls_wR_factor_gt                  ?
_pd_proc_ls_proof_R_factor               ?
_pd_proc_ls_proof_wR_factor              ?
_refine_ls_R_I_factor                    ?

# Published diffraction lines

loop_
 _refln_index_h
 _refln_index_k
 _refln_index_l
 _refln_d_spacing
 _refln_intensity_meas
 3 1 -1 142090 11
 0 0 2 159250 12
 3 1 1 170290 21
 2 0 -2 171080 ?
 0 2 0 191270 26
 1 1 -2 205450 53
 2 0 2 208570 35
 1 1 2 224190 29
 0 2 1 231160 88
 5 1 0 238230 122
 4 0 -2 247360 35
 3 1 -2 247590 48
 5 1 -1 254620 53
 2 2 1 271040 ?
 5 1 1 301480 25
 3 1 2 303780 32

# End of data set 527934


