##############################################################################
#                                                                            #
# Fe-Ga            # Fe6Ga5 rt                                     #  529993 #
#                                                                            #
##############################################################################
#                                                                            #
#                           Pearson's Crystal Data                           #
#      Crystal Structure Database for Inorganic Compounds (on DVD)           #
#                              Release 2017/18                               #
#                  Editors: Pierre Villars and Karin Cenzual                 #
#                                                                            #
#   Copyright (c) ASM International & Material Phases Data System (MPDS),    #
# Switzerland & National Institute for Materials Science (NIMS), Japan, 2017 #
#                   All rights reserved. Version 2017.08                     #
#                                                                            #
#   This copy of Pearson's Crystal Data is licensed to:                      #
#   University of Alberta, Chemistry Department, 1-5 Installations License         #
#                                                                            #
##############################################################################

data_529993
_audit_creation_date                     2017-12-01
_audit_creation_method
;
Pearson's Crystal Data browser
;
#_database_code_PCD                      529993

# Entry summary

_chemical_formula_structural             'Fe~6~ Ga~5~'
_chemical_formula_sum                    'Fe6 Ga5'
_chemical_name_mineral                   ?
_chemical_compound_source                ?
_chemical_name_structure_type            Fe~6~Ge~5~,mS44,12
_chemical_formula_weight                 683.7

# Bibliographic data

_publ_section_title
;
Pr\'eparation et \'etude de compos\'es interm\'etalliques fer-gallium a l'\'etat monocristallin
;
_journal_coden_ASTM                      CHDCAQ
_journal_name_full                       'C. R. Seances Acad. Sci., Ser. C'
_journal_year                            1974
_journal_volume                          278
_journal_page_first                      1093
_journal_page_last                       1095
_journal_language                        French
loop_
 _publ_author_name
 _publ_author_address
'Philippe M.J.'
;
Centre National de la Recherche Scientifique (CNRS)
Laboratoire de Chimie du Solide
Nancy
France
;
'Malaman B.'
;
Centre National de la Recherche Scientifique (CNRS)
Laboratoire de Chimie du Solide
Vandoeuvre-l\`es-Nancy
France
;
'Roques B.'
;
Centre National de la Recherche Scientifique (CNRS)
Laboratoire de Chimie du Solide
Nancy
France
;

# Standardized crystallographic data

_cell_length_a                           10.058
_cell_length_b                           7.946
_cell_length_c                           7.747
_cell_angle_alpha                        90
_cell_angle_beta                         109.33
_cell_angle_gamma                        90
_cell_volume                             584.24
_cell_formula_units_Z                    4
_space_group_IT_number                   12
_space_group_name_H-M_alt                'C 1 2/m 1'
loop_
 _space_group_symop_id
 _space_group_symop_operation_xyz
 1 'x, y, z'
 2 '-x, -y, -z'
 3 '-x, y, -z'
 4 'x, -y, z'
 5 '1/2+x, 1/2+y, z'
 6 '1/2-x, 1/2-y, -z'
 7 '1/2-x, 1/2+y, -z'
 8 '1/2+x, 1/2-y, z'

# Atomic positions taken from type-defining entry

loop_
 _atom_type_symbol
 Ga
 Fe
loop_
 _atom_site_label
 _atom_site_type_symbol
 _atom_site_symmetry_multiplicity
 _atom_site_Wyckoff_symbol
 _atom_site_fract_x
 _atom_site_fract_y
 _atom_site_fract_z
 _atom_site_occupancy
 Ga1 Ga 8 j 0.0451 0.1970 0.2125 1
 Fe1 Fe 8 j 0.2846 0.2605 0.1755 1
 Fe2 Fe 4 i 0.1229 0 0.0153 1
 Ga2 Ga 4 i 0.1485 0 0.6000 1
 Ga3 Ga 4 i 0.3420 0 0.3720 1
 Ga4 Ga 4 i 0.3645 0 0.0068 1
 Fe3 Fe 4 i 0.5793 0 0.2806 1
 Fe4 Fe 4 h 0 0.2533 0.5 1
 Fe5 Fe 4 f 0.25 0.25 0.5 1


_exptl_crystal_colour                    ?
_exptl_crystal_density_meas              ?
_exptl_crystal_density_diffrn            7.77
_cell_measurement_temperature            ?
_cell_measurement_radiation              X-rays
_cell_measurement_reflns_used            ?
_diffrn_ambient_temperature              ?
_diffrn_measurement_device               photographs
_diffrn_measurement_device_type          ?
_diffrn_radiation_type                   ?
_diffrn_reflns_number                    ?
_exptl_absorpt_coefficient_mu            ?
_exptl_absorpt_correction_type           ?
_computing_structure_solution            ?
_refine_ls_number_parameters             ?
_refine_ls_number_reflns                 ?
_refine_ls_R_factor_gt                   ?
_refine_ls_wR_factor_gt                  ?

# End of data set 529993


