##############################################################################
#                                                                            #
# As-Fe-O          # Fe[AsO4] ht                                   # 1503004 #
#                                                                            #
##############################################################################
#                                                                            #
#                           Pearson's Crystal Data                           #
#      Crystal Structure Database for Inorganic Compounds (on DVD)           #
#                              Release 2017/18                               #
#                  Editors: Pierre Villars and Karin Cenzual                 #
#                                                                            #
#   Copyright (c) ASM International & Material Phases Data System (MPDS),    #
# Switzerland & National Institute for Materials Science (NIMS), Japan, 2017 #
#                   All rights reserved. Version 2017.08                     #
#                                                                            #
#   This copy of Pearson's Crystal Data is licensed to:                      #
#   University of Alberta, Chemistry Department, 1-5 Installations License         #
#                                                                            #
##############################################################################

data_1503004
_audit_creation_date                     2017-12-05
_audit_creation_method
;
Pearson's Crystal Data browser
;
#_database_code_PCD                      1503004

# Entry summary

_chemical_formula_structural             'Fe [As O~4~]'
_chemical_formula_sum                    'As Fe O4'
_chemical_name_mineral                   ?
_chemical_compound_source                ?
_chemical_name_structure_type            LiAlH~4~,mP24,14
_chemical_formula_weight                 194.8

# Bibliographic data

_publ_section_title
;
Structure and Magnetism of Anhydrous FeAsO~4~: Inter- vs Intradimer Magnetic Exchange Interactions
;
_journal_coden_ASTM                      JSSCBI
_journal_name_full                       'J. Solid State Chem.'
_journal_year                            1993
_journal_volume                          107
_journal_page_first                      401
_journal_page_last                       412
_journal_language                        English
loop_
 _publ_author_name
 _publ_author_address
'Reiff W.M.'
;
Massachusetts Boston North East University
Department of Chemistry
Boston
U.S.A. Massachusetts
;
'Kwiecien M.J.'
;
Massachusetts Boston North East University
Department of Chemistry
Boston
U.S.A. Massachusetts
;
'Jakeman R.J.B.'
;
Oxford University
Department of Chemical Crystallography
Oxford
United Kingdom
;
'Cheetham A.K.'
;
Oxford University
Department of Chemical Crystallography
Oxford
United Kingdom
;
'Torardi C.C.'
;
Du Pont de Nemours and Co.
Wilmington
U.S.A. Delaware
;

# Standardized crystallographic data

_cell_length_a                           5.012
_cell_length_b                           8.081
_cell_length_c                           7.9625
_cell_angle_alpha                        90
_cell_angle_beta                         113.142
_cell_angle_gamma                        90
_cell_volume                             296.5
_cell_formula_units_Z                    4
_space_group_IT_number                   14
_space_group_name_H-M_alt                'P 1 21/c 1'
loop_
 _space_group_symop_id
 _space_group_symop_operation_xyz
 1 'x, y, z'
 2 '-x, -y, -z'
 3 '-x, 1/2+y, 1/2-z'
 4 'x, 1/2-y, 1/2+z'
loop_
 _atom_type_symbol
 Fe
 O
 As
loop_
 _atom_site_label
 _atom_site_type_symbol
 _atom_site_symmetry_multiplicity
 _atom_site_Wyckoff_symbol
 _atom_site_fract_x
 _atom_site_fract_y
 _atom_site_fract_z
 _atom_site_occupancy
 Fe1 Fe 4 e 0.088 0.5397 0.3249 1
 O2 O 4 e 0.1359 0.1261 0.0236 1
 O3 O 4 e 0.2379 0.0783 0.392 1
 O1 O 4 e 0.3261 0.3969 0.2511 1
 As1 As 4 e 0.35085 0.29852 0.07395 1
 O4 O 4 e 0.6951 0.2357 0.1341 1


_exptl_crystal_colour                    'brown faint'
_exptl_crystal_density_meas              ?
_exptl_crystal_density_diffrn            4.36
_cell_measurement_temperature            293
_cell_measurement_radiation              'X-rays, Mo Ka'
_cell_measurement_reflns_used            25
_diffrn_ambient_temperature              293
_diffrn_measurement_device               'automatic diffractometer'
_diffrn_measurement_device_type          'Enraf-Nonius CAD4'
_diffrn_radiation_type                   'X-rays, Mo Ka'
_diffrn_reflns_number                    1900
_exptl_absorpt_coefficient_mu            15.955
_exptl_absorpt_correction_type           analytical
_computing_structure_solution            'starting values from the literature'
_refine_ls_number_parameters             56
_refine_ls_number_reflns                 609
_refine_ls_R_factor_gt                   0.031
_refine_ls_wR_factor_gt                  0.032

# End of data set 1503004


