##############################################################################
#                                                                            #
# C-Fe-H-O         # Fe[C2O4][H2O]2 mon                            #  312929 #
#                                                                            #
##############################################################################
#                                                                            #
#                           Pearson's Crystal Data                           #
#      Crystal Structure Database for Inorganic Compounds (on DVD)           #
#                              Release 2017/18                               #
#                  Editors: Pierre Villars and Karin Cenzual                 #
#                                                                            #
#   Copyright (c) ASM International & Material Phases Data System (MPDS),    #
# Switzerland & National Institute for Materials Science (NIMS), Japan, 2017 #
#                   All rights reserved. Version 2017.08                     #
#                                                                            #
#   This copy of Pearson's Crystal Data is licensed to:                      #
#   University of Alberta, Chemistry Department, 1-5 Installations License         #
#                                                                            #
##############################################################################

data_312929
_audit_creation_date                     2017-12-01
_audit_creation_method
;
Pearson's Crystal Data browser
;
#_database_code_PCD                      312929

# Entry summary

_chemical_formula_structural             'Fe [C~2~ O~4~] [H~2~ O]~2~'
_chemical_formula_sum                    'C2 Fe H4 O6'
_chemical_name_mineral                   humboldtine
_chemical_compound_source                ?
_chemical_name_structure_type            Fe[C~2~O~4~][H~2~O]~2~,mS36,15
_chemical_formula_weight                 179.9

# Bibliographic data

_publ_section_title
;
Contribution a l'\'etude des oxalates de certains m\'etaux bivalents. Structure cristalline des deux formes allotropiques de l'oxalate ferreux dihydrat\'e
;
_journal_coden_ASTM                      BSCFAS
_journal_name_full                       'Bull. Soc. Chim. Fr.'
_journal_year                            1969
_journal_volume                          ?
_journal_page_first                      2675
_journal_page_last                       2681
_journal_language                        French
loop_
 _publ_author_name
 _publ_author_address
'Deyrieux R.'
;
Aix-Marseille III University
Laboratoire de Chimie Physique
Marseille
France
;
'Peneloux A.'
;
Aix-Marseille III University
Laboratoire de Chimie Physique
Marseille
France
;

# Standardized crystallographic data

_cell_length_a                           11.94
_cell_length_b                           5.57
_cell_length_c                           9.726
_cell_angle_alpha                        90
_cell_angle_beta                         127.05
_cell_angle_gamma                        90
_cell_volume                             516.2
_cell_formula_units_Z                    4
_space_group_IT_number                   15
_space_group_name_H-M_alt                'C 1 2/c 1'
loop_
 _space_group_symop_id
 _space_group_symop_operation_xyz
 1 'x, y, z'
 2 '-x, -y, -z'
 3 '-x, y, 1/2-z'
 4 'x, -y, 1/2+z'
 5 '1/2+x, 1/2+y, z'
 6 '1/2-x, 1/2-y, -z'
 7 '1/2-x, 1/2+y, 1/2-z'
 8 '1/2+x, 1/2-y, 1/2+z'
loop_
 _atom_type_symbol
 O
 OH2
 C
 Fe
loop_
 _atom_site_label
 _atom_site_type_symbol
 _atom_site_symmetry_multiplicity
 _atom_site_Wyckoff_symbol
 _atom_site_fract_x
 _atom_site_fract_y
 _atom_site_fract_z
 _atom_site_occupancy
 O2 O 8 f 0.082 0.379 0.418 1
 O3w OH2 8 f 0.175 0.065 0.25 1
 O1 O 8 f 0.418 0.251 0.082 1
 C C 8 f 0.441 0.065 0.148 1
 Fe Fe 4 e 0 0.065 0.25 1


_exptl_crystal_colour                    ?
_exptl_crystal_density_meas              ?
_exptl_crystal_density_diffrn            2.31
_cell_measurement_temperature            ?
_cell_measurement_radiation              'X-rays, Cu Ka'
_cell_measurement_reflns_used            ?
_diffrn_ambient_temperature              ?
_diffrn_measurement_device               'Debye-Scherrer film'
_diffrn_measurement_device_type          ?
_diffrn_radiation_type                   'X-rays, Cu Ka'
_diffrn_reflns_number                    ?
_exptl_absorpt_coefficient_mu            ?
_exptl_absorpt_correction_type           ?
_computing_structure_solution            'crystal chemical considerations'
_refine_ls_number_parameters             ?
_refine_ls_number_reflns                 ?
_refine_ls_R_factor_gt                   0.111
_refine_ls_wR_factor_gt                  ?
_pd_proc_ls_proof_R_factor               ?
_pd_proc_ls_proof_wR_factor              ?
_refine_ls_R_I_factor                    ?

# Published diffraction lines

loop_
 _refln_index_h
 _refln_index_k
 _refln_index_l
 _refln_d_spacing
 _refln_intensity_meas
 -1 1 1 48.15 100.00
 -2 0 2 47.95 100.00
 2 0 0 47 83.38
 0 0 2 38.82 32.93
 -1 1 2 36.28 9.71
 1 1 1 35.99 37.71
 -3 1 2 31.91 1.34
 -3 1 1 31.7 6.68
 -4 0 2 29.99 92.47
 0 2 0 27.85 6.77
 -3 1 3 27.73 6.77
 3 1 0 27.31 1.00
 -1 1 3 26.55 58.98
 1 1 2 26.34 8.98
 0 2 1 26.16 40.69
 -2 2 1 25.27 1.00
 -2 2 2 24.08 7.00
 -4 0 4 23.97 7.45
 2 2 0 23.96 7.45
 2 0 2 23.58 6.50
 -2 0 4 23.52 6.54
 4 0 0 23.5 4.00
 -3 1 4 22.63 6.30
 0 2 2 22.62 49.58
 3 1 1 22.26 10.20
 -5 1 3 21.88 10.35
 -5 1 2 21.86 10.35
 -2 2 3 21.25 14.60
 2 2 1 21.09 31.70
 -4 2 2 20.41 13.20
 -1 1 4 20.37 13.20
 1 1 3 20.24 51.40
 -5 1 1 20.14 3.80
 -4 2 3 19.8 6.50
 -4 2 1 19.67 10.40
 -6 0 4 19.46 67.40
 0 0 4 19.4 6.20
 -6 0 2 19.27 51.70
 0 2 3 18.95 41.40
 -3 1 5 18.45 15.60
 -1 3 1 18.23 97.20
 1 3 0 18.21 97.20
 3 1 2 18.17 97.20
 -4 2 4 18.16 97.20
 -2 2 4 18.15 97.20
 -5 1 5 18.14 97.20
 2 2 2 17.99 20.00
 4 2 0 17.96 20.00
 5 1 0 17.81 8.00
 -1 3 2 17.31 9.80
 1 3 1 17.28 1.40
 -3 3 2 16.76 9.00
 -3 3 1 16.72 1.10

# End of data set 312929


