##############################################################################
#                                                                            #
# Fe-H-O-P         # Fe[PO4][H2O]2 mon                             #  381967 #
#                                                                            #
##############################################################################
#                                                                            #
#                           Pearson's Crystal Data                           #
#      Crystal Structure Database for Inorganic Compounds (on DVD)           #
#                              Release 2017/18                               #
#                  Editors: Pierre Villars and Karin Cenzual                 #
#                                                                            #
#   Copyright (c) ASM International & Material Phases Data System (MPDS),    #
# Switzerland & National Institute for Materials Science (NIMS), Japan, 2017 #
#                   All rights reserved. Version 2017.08                     #
#                                                                            #
#   This copy of Pearson's Crystal Data is licensed to:                      #
#   University of Alberta, Chemistry Department, 1-5 Installations License         #
#                                                                            #
##############################################################################

data_381967
_audit_creation_date                     2017-12-01
_audit_creation_method
;
Pearson's Crystal Data browser
;
#_database_code_PCD                      381967

# Entry summary

_chemical_formula_structural             'Fe [P O~4~] [H~2~ O]~2~'
_chemical_formula_sum                    'Fe H4 O6 P'
_chemical_name_mineral                   phosphosiderite
_chemical_compound_source                ?
_chemical_name_structure_type            Al[PO~4~][H~2~O]~2~,mP32,14
_chemical_formula_weight                 186.8

# Bibliographic data

_publ_section_title
;
Structures cristallines de la m\'etavariscite et de la m\'etastrengite
;
_journal_coden_ASTM                      COREAF
_journal_name_full                       'C. R. Hebd. Seances Acad. Sci.'
_journal_year                            1965
_journal_volume                          261
_journal_page_first                      376
_journal_page_last                       378
_journal_language                        French
loop_
 _publ_author_name
 _publ_author_address
'Borensztajn J.'
;
Paris University
Laboratoire de Min\'eralogie et Cristallographie
Paris
France
;

# Standardized crystallographic data

_cell_length_a                           5.32
_cell_length_b                           9.75
_cell_length_c                           10.1075
_cell_angle_alpha                        90
_cell_angle_beta                         121.157
_cell_angle_gamma                        90
_cell_volume                             448.7
_cell_formula_units_Z                    4
_space_group_IT_number                   14
_space_group_name_H-M_alt                'P 1 21/c 1'
loop_
 _space_group_symop_id
 _space_group_symop_operation_xyz
 1 'x, y, z'
 2 '-x, -y, -z'
 3 '-x, 1/2+y, 1/2-z'
 4 'x, 1/2-y, 1/2+z'
loop_
 _atom_type_symbol
 Fe
 O
 OH2
 P
loop_
 _atom_site_label
 _atom_site_type_symbol
 _atom_site_symmetry_multiplicity
 _atom_site_Wyckoff_symbol
 _atom_site_fract_x
 _atom_site_fract_y
 _atom_site_fract_z
 _atom_site_occupancy
 Fe Fe 4 e 0.0989 0.6746 0.1914 1
 O1 O 4 e 0.106 0.324 0.268 1
 O2 O 4 e 0.121 0.274 0.03 1
 H2O1 OH2 4 e 0.215 0.049 0.321 1
 P P 4 e 0.2722 0.351 0.1842 1
 O4 O 4 e 0.283 0.503 0.167 1
 O3 O 4 e 0.58 0.29 0.283 1
 H2O2 OH2 4 e 0.656 0.132 0.069 1


_exptl_crystal_colour                    ?
_exptl_crystal_density_meas              2.76
_exptl_crystal_density_diffrn            2.77
_cell_measurement_temperature            ?
_cell_measurement_radiation              'X-rays, Mo Ka'
_cell_measurement_reflns_used            ?
_diffrn_ambient_temperature              ?
_diffrn_measurement_device               'Weissenberg photographs'
_diffrn_measurement_device_type          ?
_diffrn_radiation_type                   'X-rays, Mo Ka'
_diffrn_reflns_number                    ?
_exptl_absorpt_coefficient_mu            ?
_exptl_absorpt_correction_type           ?
_computing_structure_solution            'Patterson and Fourier synthesis'
_refine_ls_number_parameters             ?
_refine_ls_number_reflns                 ?
_refine_ls_R_factor_gt                   0.16
_refine_ls_wR_factor_gt                  ?

# End of data set 381967


