##############################################################################
#                                                                            #
# Fe-H-O-S         # Fe[SO4][H2O]4                                 #  557435 #
#                                                                            #
##############################################################################
#                                                                            #
#                           Pearson's Crystal Data                           #
#      Crystal Structure Database for Inorganic Compounds (on DVD)           #
#                              Release 2017/18                               #
#                  Editors: Pierre Villars and Karin Cenzual                 #
#                                                                            #
#   Copyright (c) ASM International & Material Phases Data System (MPDS),    #
# Switzerland & National Institute for Materials Science (NIMS), Japan, 2017 #
#                   All rights reserved. Version 2017.08                     #
#                                                                            #
#   This copy of Pearson's Crystal Data is licensed to:                      #
#   University of Alberta, Chemistry Department, 1-5 Installations License         #
#                                                                            #
##############################################################################

data_557435
_audit_creation_date                     2017-12-04
_audit_creation_method
;
Pearson's Crystal Data browser
;
#_database_code_PCD                      557435

# Entry summary

_chemical_formula_structural             'Fe [S O~4~] [H~2~ O]~4~'
_chemical_formula_sum                    'Fe H8 O8 S'
_chemical_name_mineral                   rozenite
_chemical_compound_source                ?
_chemical_name_structure_type            Fe[SO~4~][H~2~O]~4~,mP40,14
_chemical_formula_weight                 224.0

# Bibliographic data

_publ_section_title
;
Etude de la dissociation thermique des sulfates et des sulfates basiques. V. Quelques aspects de la dissociation thermique des sulfates de nickel, NiSO~4~.7H~2~O et NiSO~4~.6H~2~O; \'etude cristallographique de NiSO~4~.4H~2~O
;
_journal_coden_ASTM                      BSCFAS
_journal_name_full                       'Bull. Soc. Chim. Fr.'
_journal_year                            1964
_journal_volume                          ?
_journal_page_first                      3141
_journal_page_last                       3149
_journal_language                        French
loop_
 _publ_author_name
 _publ_author_address
'Pannetier G.'
;
Paris University
Laboratoire de Chimie
Paris
France
;
'Br\'egeault J.M.'
;
Paris VI Pierre et Marie Curie University
Laboratoire de Chimie
Paris
France
;
'Lecouturier C.'
;
Paris University
Laboratoire de Chimie
Paris
France
;
'Dj\'ega Mariadassou C.'
;
Paris University
Laboratoire de Chimie
Paris
France
;

# Standardized crystallographic data

_cell_length_a                           5.799
_cell_length_b                           13.648
_cell_length_c                           9.8268
_cell_angle_alpha                        90
_cell_angle_beta                         125.734
_cell_angle_gamma                        90
_cell_volume                             631.3
_cell_formula_units_Z                    4
_space_group_IT_number                   14
_space_group_name_H-M_alt                'P 1 21/c 1'
loop_
 _space_group_symop_id
 _space_group_symop_operation_xyz
 1 'x, y, z'
 2 '-x, -y, -z'
 3 '-x, 1/2+y, 1/2-z'
 4 'x, 1/2-y, 1/2+z'

# Atomic positions taken from type-defining entry

loop_
 _atom_type_symbol
 O
 Fe
 S
loop_
 _atom_site_label
 _atom_site_type_symbol
 _atom_site_symmetry_multiplicity
 _atom_site_Wyckoff_symbol
 _atom_site_fract_x
 _atom_site_fract_y
 _atom_site_fract_z
 _atom_site_occupancy
 O1 O 4 e 0.0 0.0729 0.1415 1
 O2 O 4 e 0.0334 0.75 0.216 1
 Fe1 Fe 4 e 0.1505 0.6026 0.2183 1
 O3 O 4 e 0.2517 0.4516 0.2446 1
 O4 O 4 e 0.2563 0.4232 0.0026 1
 O5 O 4 e 0.3112 0.2867 0.1812 1
 O6 O 4 e 0.3171 0.6391 0.0859 1
 S1 S 4 e 0.3743 0.3904 0.1764 1
 O7 O 4 e 0.4416 0.1254 0.0579 1
 O8 O 4 e 0.6815 0.4047 0.2865 1


_exptl_crystal_colour                    ?
_exptl_crystal_density_meas              ?
_exptl_crystal_density_diffrn            2.36
_cell_measurement_temperature            ?
_cell_measurement_radiation              'X-rays, Cu Ka'
_cell_measurement_reflns_used            ?
_diffrn_ambient_temperature              ?
_diffrn_measurement_device               film
_diffrn_measurement_device_type          ?
_diffrn_radiation_type                   ?
_diffrn_reflns_number                    ?
_exptl_absorpt_coefficient_mu            ?
_exptl_absorpt_correction_type           ?
_computing_structure_solution            ?
_refine_ls_number_parameters             ?
_refine_ls_number_reflns                 ?
_refine_ls_R_factor_gt                   ?
_refine_ls_wR_factor_gt                  ?

# Published diffraction lines

loop_
 _refln_index_h
 _refln_index_k
 _refln_index_l
 _refln_d_spacing
 _refln_intensity_meas
 0 1 1 68.8 25
 1 1 0 54.8 80
 0 2 1 51.9 1
 1 0 1 47.6 17
 1 2 0 44.94 100
 0 0 2 39.85 66
 0 1 2 38.34 1
 1 3 0 36.11 9
 0 4 0 34.01 38
 1 3 1 32.87 16
 1 1 -2 32.31 32
 2 0 0 29.84 37
 1 4 0 29.58 31
 2 1 0 29.13 4
 1 4 1 27.7 11
 2 1 1 27.29 12
 1 3 2 26.72 5
 0 4 2 26.03 3
 0 5 1 25.77 25
 0 2 3 24.75 6
 1 0 3 24.29 18
 1 1 -3 23.93 4
 1 4 2 23.75 15
 1 5 1 23.59 15
 2 1 2 23.4 7
 0 3 3 22.9 6
 2 2 -2 22.66 20
 2 4 0 22.41 9
 0 6 1 21.82 3
 1 3 3 21.43 2
 1 6 0 21.17 4
 1 5 2 21.05 2
 1 6 1 20.48 1
 0 0 4 19.91 4
 3 1 0 19.69 14
 2 5 1 19.48 8
 3 0 1 19.24 3
 3 1 1 19.08 5
 0 7 1 18.95 11
 1 6 2 18.73 8
 1 7 0 18.56 1
 1 2 4 18.22 3

# End of data set 557435


