##############################################################################
#                                                                            #
# F-Fe             # FeF3 hex                                      #  551761 #
#                                                                            #
##############################################################################
#                                                                            #
#                           Pearson's Crystal Data                           #
#      Crystal Structure Database for Inorganic Compounds (on DVD)           #
#                              Release 2017/18                               #
#                  Editors: Pierre Villars and Karin Cenzual                 #
#                                                                            #
#   Copyright (c) ASM International & Material Phases Data System (MPDS),    #
# Switzerland & National Institute for Materials Science (NIMS), Japan, 2017 #
#                   All rights reserved. Version 2017.08                     #
#                                                                            #
#   This copy of Pearson's Crystal Data is licensed to:                      #
#   University of Alberta, Chemistry Department, 1-5 Installations License         #
#                                                                            #
##############################################################################

data_551761
_audit_creation_date                     2017-12-04
_audit_creation_method
;
Pearson's Crystal Data browser
;
#_database_code_PCD                      551761

# Entry summary

_chemical_formula_structural             'Fe F~3~'
_chemical_formula_sum                    'F3 Fe'
_chemical_name_mineral                   ?
_chemical_compound_source                ?
_chemical_name_structure_type            WO~3~,hP12,191
_chemical_formula_weight                 112.8

# Bibliographic data

_publ_section_title
;
Ordered magnetic frustration - V. Antiferromagnetic structure of the hexagonal bronzoid HTB-FeF~3~; comparison with the non frustrated rhombohedral form
;
_journal_coden_ASTM                      SSCOA4
_journal_name_full                       'Solid State Commun.'
_journal_year                            1986
_journal_volume                          58
_journal_page_first                      171
_journal_page_last                       176
_journal_language                        English
loop_
 _publ_author_name
 _publ_author_address
'Leblanc M.'
;
Le Mans Maine University
Laboratoire des Fluorures
Le Mans
France
;
'De Pape R.'
;
Le Mans Maine University
Laboratoire des Fluorures
Le Mans
France
;
'F\'erey G.'
;
Le Mans Maine University
Laboratoire des Fluorures
Le Mans
France
;
'Pannetier J.'
;
Grenoble Laue-Langevin Institute
Grenoble
France
;

# Standardized crystallographic data

_cell_length_a                           7.413
_cell_length_b                           7.413
_cell_length_c                           3.7949
_cell_angle_alpha                        90
_cell_angle_beta                         90
_cell_angle_gamma                        120
_cell_volume                             180.6
_cell_formula_units_Z                    3
_space_group_IT_number                   191
_space_group_name_H-M_alt                'P 6/m m m'
loop_
 _space_group_symop_id
 _space_group_symop_operation_xyz
 1 'x, y, z'
 2 '-x+y, -x, -z'
 3 '-x+y, -x, z'
 4 '-x+y, y, -z'
 5 '-x+y, y, z'
 6 '-x, -x+y, -z'
 7 '-x, -x+y, z'
 8 '-x, -y, -z'
 9 '-x, -y, z'
 10 '-y, -x, -z'
 11 '-y, -x, z'
 12 '-y, x-y, -z'
 13 '-y, x-y, z'
 14 'x, x-y, -z'
 15 'x, x-y, z'
 16 'x, y, -z'
 17 'x-y, -y, -z'
 18 'x-y, -y, z'
 19 'x-y, x, -z'
 20 'x-y, x, z'
 21 'y, -x+y, -z'
 22 'y, -x+y, z'
 23 'y, x, -z'
 24 'y, x, z'
loop_
 _atom_type_symbol
 F
 Fe
loop_
 _atom_site_label
 _atom_site_type_symbol
 _atom_site_symmetry_multiplicity
 _atom_site_Wyckoff_symbol
 _atom_site_fract_x
 _atom_site_fract_y
 _atom_site_fract_z
 _atom_site_occupancy
 F2 F 6 l 0.2114 0.4228 0 1
 F1 F 3 g 0.5 0 0.5 1
 Fe Fe 3 f 0.5 0 0 1


_exptl_crystal_colour                    'green faint'
_exptl_crystal_density_meas              ?
_exptl_crystal_density_diffrn            3.11
_cell_measurement_temperature            293
_cell_measurement_radiation              neutrons
_cell_measurement_wavelength             1.909
_pd_proc_wavelength                      1.909
_cell_measurement_reflns_used            ?
_diffrn_ambient_temperature              293
_diffrn_measurement_device               diffractometer
_diffrn_measurement_device_type
'France, Grenoble, Institut Laue-Langevin ILL, D1A'                           
_diffrn_radiation_type                   neutrons
_diffrn_radiation_wavelength             1.909
_diffrn_reflns_number                    ?
_diffrn_reflns_theta_min                 14
_diffrn_reflns_theta_max                 54
_pd_proc_2theta_range_min                28
_pd_proc_2theta_range_max                108
_exptl_absorpt_coefficient_mu            ?
_exptl_absorpt_correction_type           ?
_computing_structure_solution            'starting values from the literature'
_refine_ls_number_parameters             28
_refine_ls_number_reflns                 ?
_refine_ls_R_factor_gt                   ?
_refine_ls_wR_factor_gt                  ?
_pd_proc_ls_proof_R_factor               0.115
_pd_proc_ls_proof_wR_factor              0.101
_refine_ls_R_I_factor                    0.048

# End of data set 551761


