##############################################################################
#                                                                            #
# Fe-Ge            # FeGe ht2                                      #  455806 #
#                                                                            #
##############################################################################
#                                                                            #
#                           Pearson's Crystal Data                           #
#      Crystal Structure Database for Inorganic Compounds (on DVD)           #
#                              Release 2017/18                               #
#                  Editors: Pierre Villars and Karin Cenzual                 #
#                                                                            #
#   Copyright (c) ASM International & Material Phases Data System (MPDS),    #
# Switzerland & National Institute for Materials Science (NIMS), Japan, 2017 #
#                   All rights reserved. Version 2017.08                     #
#                                                                            #
#   This copy of Pearson's Crystal Data is licensed to:                      #
#   University of Alberta, Chemistry Department, 1-5 Installations License         #
#                                                                            #
##############################################################################

data_455806
_audit_creation_date                     2017-12-01
_audit_creation_method
;
Pearson's Crystal Data browser
;
#_database_code_PCD                      455806

# Entry summary

_chemical_formula_structural             'Fe Ge'
_chemical_formula_sum                    'Fe Ge'
_chemical_name_mineral                   ?
_chemical_compound_source                ?
_chemical_name_structure_type            CoGe,mS16,12
_chemical_formula_weight                 128.4

# Bibliographic data

_publ_section_title
'Magnetic structures of monoclinic FeGe'                                      
_journal_coden_ASTM                      JPSOAW
_journal_name_full                       'J. Phys. C: Solid State Phys.'
_journal_year                            1983
_journal_volume                          16
_journal_page_first                      6281
_journal_page_last                       6290
_journal_language                        English
loop_
 _publ_author_name
 _publ_author_address
'Felcher G.P.'
;
Argonne National Laboratory
Materials Science and Technology Division
Argonne
U.S.A. Illinois
;
'Jorgensen J.D.'
;
Argonne National Laboratory
Materials Science and Technology Division
Argonne
U.S.A. Illinois
;
'W\"appling R.'
;
Uppsala University
Institute of Physics
Uppsala
Sweden
;

# Standardized crystallographic data

_cell_length_a                           11.824
_cell_length_b                           3.9309
_cell_length_c                           4.9265
_cell_angle_alpha                        90
_cell_angle_beta                         103.515
_cell_angle_gamma                        90
_cell_volume                             222.64
_cell_formula_units_Z                    8
_space_group_IT_number                   12
_space_group_name_H-M_alt                'C 1 2/m 1'
loop_
 _space_group_symop_id
 _space_group_symop_operation_xyz
 1 'x, y, z'
 2 '-x, -y, -z'
 3 '-x, y, -z'
 4 'x, -y, z'
 5 '1/2+x, 1/2+y, z'
 6 '1/2-x, 1/2-y, -z'
 7 '1/2-x, 1/2+y, -z'
 8 '1/2+x, 1/2-y, z'
loop_
 _atom_type_symbol
 Ge
 Fe
loop_
 _atom_site_label
 _atom_site_type_symbol
 _atom_site_symmetry_multiplicity
 _atom_site_Wyckoff_symbol
 _atom_site_fract_x
 _atom_site_fract_y
 _atom_site_fract_z
 _atom_site_occupancy
 Ge1 Ge 4 i 0.186 0 0.3451 1
 Ge2 Ge 4 i 0.4312 0 0.2026 1
 Fe1 Fe 4 i 0.7944 0 0.142 1
 Fe2 Fe 2 c 0 0 0.5 1
 Fe3 Fe 2 a 0 0 0 1


_exptl_crystal_colour                    ?
_exptl_crystal_density_meas              ?
_exptl_crystal_density_diffrn            7.66
_cell_measurement_temperature            150
_cell_measurement_radiation              'neutrons, time-of-flight'
_cell_measurement_reflns_used            ?
_diffrn_ambient_temperature              150
_diffrn_measurement_device               'automatic diffractometer'
_diffrn_measurement_device_type
;
U.S.A. Illinois, Argonne National Laboratory, Intense Pulsed Neutron Source IPNS, GPPD
;
_diffrn_radiation_type                   'neutrons, time-of-flight'
_diffrn_reflns_number                    ?
_exptl_absorpt_coefficient_mu            ?
_exptl_absorpt_correction_type           ?
_computing_structure_solution            'starting values from the literature'
_refine_ls_number_parameters             ?
_refine_ls_number_reflns                 ?
_refine_ls_R_factor_gt                   0.0473
_refine_ls_wR_factor_gt                  ?
_pd_proc_ls_proof_R_factor               ?
_pd_proc_ls_proof_wR_factor              ?
_refine_ls_R_I_factor                    ?

# End of data set 455806


