##############################################################################
#                                                                            #
# Fe-Ge            # FeGe ht1                                      #  455425 #
#                                                                            #
##############################################################################
#                                                                            #
#                           Pearson's Crystal Data                           #
#      Crystal Structure Database for Inorganic Compounds (on DVD)           #
#                              Release 2017/18                               #
#                  Editors: Pierre Villars and Karin Cenzual                 #
#                                                                            #
#   Copyright (c) ASM International & Material Phases Data System (MPDS),    #
# Switzerland & National Institute for Materials Science (NIMS), Japan, 2017 #
#                   All rights reserved. Version 2017.08                     #
#                                                                            #
#   This copy of Pearson's Crystal Data is licensed to:                      #
#   University of Alberta, Chemistry Department, 1-5 Installations License         #
#                                                                            #
##############################################################################

data_455425
_audit_creation_date                     2017-12-01
_audit_creation_method
;
Pearson's Crystal Data browser
;
#_database_code_PCD                      455425

# Entry summary

_chemical_formula_structural             'Fe Ge'
_chemical_formula_sum                    'Fe Ge'
_chemical_name_mineral                   ?
_chemical_compound_source                ?
_chemical_name_structure_type            CoSn,hP6,191
_chemical_formula_weight                 128.4

# Bibliographic data

_publ_section_title
;
Magnetic and X-Ray Studies of Iron-Germanium System. II. Phase Diagram and Magnetism of Each Phase
;
_journal_coden_ASTM                      JUPSAU
_journal_name_full                       'J. Phys. Soc. Jpn.'
_journal_year                            1965
_journal_volume                          20
_journal_page_first                      236
_journal_page_last                       242
_journal_language                        English
loop_
 _publ_author_name
 _publ_author_address
'Kanematsu K.'
;
Tokyo Nihon University
Department of Physics
Tokyo / Tokyo
Japan
;
'Ohoyama T.'
;
Hachioji Tokyo Metropolitan University
Department of Physics
Hachioji / Tokyo
Japan
;

# Standardized crystallographic data

_cell_length_a                           5.008
_cell_length_b                           5.008
_cell_length_c                           4.055
_cell_angle_alpha                        90
_cell_angle_beta                         90
_cell_angle_gamma                        120
_cell_volume                             88.07
_cell_formula_units_Z                    3
_space_group_IT_number                   191
_space_group_name_H-M_alt                'P 6/m m m'
loop_
 _space_group_symop_id
 _space_group_symop_operation_xyz
 1 'x, y, z'
 2 '-x+y, -x, -z'
 3 '-x+y, -x, z'
 4 '-x+y, y, -z'
 5 '-x+y, y, z'
 6 '-x, -x+y, -z'
 7 '-x, -x+y, z'
 8 '-x, -y, -z'
 9 '-x, -y, z'
 10 '-y, -x, -z'
 11 '-y, -x, z'
 12 '-y, x-y, -z'
 13 '-y, x-y, z'
 14 'x, x-y, -z'
 15 'x, x-y, z'
 16 'x, y, -z'
 17 'x-y, -y, -z'
 18 'x-y, -y, z'
 19 'x-y, x, -z'
 20 'x-y, x, z'
 21 'y, -x+y, -z'
 22 'y, -x+y, z'
 23 'y, x, -z'
 24 'y, x, z'
loop_
 _atom_type_symbol
 Fe
 Ge
loop_
 _atom_site_label
 _atom_site_type_symbol
 _atom_site_symmetry_multiplicity
 _atom_site_Wyckoff_symbol
 _atom_site_fract_x
 _atom_site_fract_y
 _atom_site_fract_z
 _atom_site_occupancy
 Fe Fe 3 f 0.5 0 0 1
 Ge2 Ge 2 d 0.333333 0.666667 0.5 1
 Ge1 Ge 1 a 0 0 0 1


_exptl_crystal_colour                    ?
_exptl_crystal_density_meas              ?
_exptl_crystal_density_diffrn            7.26
_cell_measurement_temperature            ?
_cell_measurement_radiation              'X-rays, Cu Ka'
_cell_measurement_reflns_used            ?
_diffrn_ambient_temperature              ?
_diffrn_measurement_device               film
_diffrn_measurement_device_type          ?
_diffrn_radiation_type                   'X-rays, Cu Ka'
_diffrn_reflns_number                    ?
_exptl_absorpt_coefficient_mu            ?
_exptl_absorpt_correction_type           ?
_computing_structure_solution            'starting values from the literature'
_refine_ls_number_parameters             ?
_refine_ls_number_reflns                 ?
_refine_ls_R_factor_gt                   ?
_refine_ls_wR_factor_gt                  ?
_pd_proc_ls_proof_R_factor               ?
_pd_proc_ls_proof_wR_factor              ?
_refine_ls_R_I_factor                    ?

# Published diffraction lines

loop_
 _refln_index_h
 _refln_index_k
 _refln_index_l
 _refln_d_spacing
 _refln_intensity_meas
 1 0 0 0.316 10
 0 0 1 0.361 10
 1 0 1 0.678 20
 1 1 0 0.947 30
 2 0 0 1.262 20
 1 1 1 1.308 20
 0 0 2 1.441 35
 2 0 1 1.625 75
 1 0 2 1.759 5
 2 1 0 2.211 2
 1 1 2 2.391 14
 2 1 1 2.576 7
 2 0 2 2.707 10
 3 0 0 2.843 7
 3 0 1 3.206 3
 0 0 3 3.241 1.5
 1 0 3 3.559 2
 2 1 2 3.658 2
 2 2 0 3.79 24
 1 1 3 4.201 4
 3 0 2 4.287 6
 3 1 1 4.477 4
 2 0 3 4.51 15

# End of data set 455425


