##############################################################################
#                                                                            #
# Fe-Ge            # FeGe ht2                                      #  452741 #
#                                                                            #
##############################################################################
#                                                                            #
#                           Pearson's Crystal Data                           #
#      Crystal Structure Database for Inorganic Compounds (on DVD)           #
#                              Release 2017/18                               #
#                  Editors: Pierre Villars and Karin Cenzual                 #
#                                                                            #
#   Copyright (c) ASM International & Material Phases Data System (MPDS),    #
# Switzerland & National Institute for Materials Science (NIMS), Japan, 2017 #
#                   All rights reserved. Version 2017.08                     #
#                                                                            #
#   This copy of Pearson's Crystal Data is licensed to:                      #
#   University of Alberta, Chemistry Department, 1-5 Installations License         #
#                                                                            #
##############################################################################

data_452741
_audit_creation_date                     2017-12-01
_audit_creation_method
;
Pearson's Crystal Data browser
;
#_database_code_PCD                      452741

# Entry summary

_chemical_formula_structural             'Fe Ge'
_chemical_formula_sum                    'Fe Ge'
_chemical_name_mineral                   ?
_chemical_compound_source                ?
_chemical_name_structure_type            CoGe,mS16,12
_chemical_formula_weight                 128.4

# Bibliographic data

_publ_section_title
;
The Partial Equilibrium Diagram of the Fe-Ge System in the Range 40-72 at.% Ge, and the Crystallisation of some Iron Germanides by Chemical Transport Reactions
;
_journal_coden_ASTM                      ACSAA4
_journal_name_full                       'Acta Chem. Scand.'
_journal_year                            1967
_journal_volume                          21
_journal_page_first                      2305
_journal_page_last                       2317
_journal_language                        English
loop_
 _publ_author_name
 _publ_author_address
'Richardson M.F.'
;
Uppsala University
Institute of Chemistry
Uppsala
Sweden
;

# Standardized crystallographic data

_cell_length_a                           11.838
_cell_length_b                           3.9371
_cell_length_c                           4.9336
_cell_angle_alpha                        90
_cell_angle_beta                         103.514
_cell_angle_gamma                        90
_cell_volume                             223.58
_cell_formula_units_Z                    8
_space_group_IT_number                   12
_space_group_name_H-M_alt                'C 1 2/m 1'
loop_
 _space_group_symop_id
 _space_group_symop_operation_xyz
 1 'x, y, z'
 2 '-x, -y, -z'
 3 '-x, y, -z'
 4 'x, -y, z'
 5 '1/2+x, 1/2+y, z'
 6 '1/2-x, 1/2-y, -z'
 7 '1/2-x, 1/2+y, -z'
 8 '1/2+x, 1/2-y, z'

# Atomic positions taken from type-defining entry

loop_
 _atom_type_symbol
 Ge
 Fe
loop_
 _atom_site_label
 _atom_site_type_symbol
 _atom_site_symmetry_multiplicity
 _atom_site_Wyckoff_symbol
 _atom_site_fract_x
 _atom_site_fract_y
 _atom_site_fract_z
 _atom_site_occupancy
 Ge1 Ge 4 i 0.18 0 0.34 1
 Ge2 Ge 4 i 0.433 0 0.24 1
 Fe1 Fe 4 i 0.80 0 0.18 1
 Fe2 Fe 2 c 0 0 0.5 1
 Fe3 Fe 2 a 0 0 0 1


_exptl_crystal_colour                    ?
_exptl_crystal_density_meas              ?
_exptl_crystal_density_diffrn            7.63
_cell_measurement_temperature            ?
_cell_measurement_radiation              'X-rays, Cr Ka1'
_cell_measurement_wavelength             2.28962
_pd_proc_wavelength                      2.28962
_cell_measurement_reflns_used            ?
_diffrn_ambient_temperature              ?
_diffrn_measurement_device               'Guinier-Haegg film'
_diffrn_measurement_device_type          ?
_diffrn_radiation_type                   ?
_diffrn_reflns_number                    ?
_exptl_absorpt_coefficient_mu            ?
_exptl_absorpt_correction_type           ?
_computing_structure_solution            ?
_refine_ls_number_parameters             ?
_refine_ls_number_reflns                 ?
_refine_ls_R_factor_gt                   ?
_refine_ls_wR_factor_gt                  ?

# End of data set 452741


