##############################################################################
#                                                                            #
# Fe-In-O          # FeInO3                                        # 1501687 #
#                                                                            #
##############################################################################
#                                                                            #
#                           Pearson's Crystal Data                           #
#      Crystal Structure Database for Inorganic Compounds (on DVD)           #
#                              Release 2017/18                               #
#                  Editors: Pierre Villars and Karin Cenzual                 #
#                                                                            #
#   Copyright (c) ASM International & Material Phases Data System (MPDS),    #
# Switzerland & National Institute for Materials Science (NIMS), Japan, 2017 #
#                   All rights reserved. Version 2017.08                     #
#                                                                            #
#   This copy of Pearson's Crystal Data is licensed to:                      #
#   University of Alberta, Chemistry Department, 1-5 Installations License         #
#                                                                            #
##############################################################################

data_1501687
_audit_creation_date                     2017-12-05
_audit_creation_method
;
Pearson's Crystal Data browser
;
#_database_code_PCD                      1501687

# Entry summary

_chemical_formula_structural             'Fe In O~3~'
_chemical_formula_sum                    'Fe In O3'
_chemical_name_mineral                   ?
_chemical_compound_source                ?
_chemical_name_structure_type            YAlO~3~,hP10,194
_chemical_formula_weight                 218.7

# Bibliographic data

_publ_section_title                      'Structure of Indium Iron Oxide'
_journal_coden_ASTM                      ACSCEE
_journal_name_full                       'Acta Crystallogr. C'
_journal_year                            1994
_journal_volume                          50
_journal_page_first                      5
_journal_page_last                       7
_journal_language                        English
loop_
 _publ_author_name
 _publ_author_address
'Giaquinta D.M.'
;
Massachusetts Institute of Technology (MIT)
Department of Chemistry
Cambridge
U.S.A. Massachusetts
;
'Davis W.M.'
;
Massachusetts Institute of Technology (MIT)
Department of Chemistry
Cambridge
U.S.A. Massachusetts
;
'Zur Loye H.C.'
;
Massachusetts Institute of Technology (MIT)
Department of Chemistry
Cambridge
U.S.A. Massachusetts
;

# Standardized crystallographic data

_cell_length_a                           3.327
_cell_length_b                           3.327
_cell_length_c                           12.175
_cell_angle_alpha                        90
_cell_angle_beta                         90
_cell_angle_gamma                        120
_cell_volume                             116.7
_cell_formula_units_Z                    2
_space_group_IT_number                   194
_space_group_name_H-M_alt                'P 63/m m c'
loop_
 _space_group_symop_id
 _space_group_symop_operation_xyz
 1 'x, y, z'
 2 '-x+y, -x, 1/2-z'
 3 '-x+y, -x, z'
 4 '-x+y, y, 1/2-z'
 5 '-x+y, y, z'
 6 '-x, -x+y, -z'
 7 '-x, -x+y, 1/2+z'
 8 '-x, -y, -z'
 9 '-x, -y, 1/2+z'
 10 '-y, -x, 1/2-z'
 11 '-y, -x, z'
 12 '-y, x-y, 1/2-z'
 13 '-y, x-y, z'
 14 'x, x-y, 1/2-z'
 15 'x, x-y, z'
 16 'x, y, 1/2-z'
 17 'x-y, -y, -z'
 18 'x-y, -y, 1/2+z'
 19 'x-y, x, -z'
 20 'x-y, x, 1/2+z'
 21 'y, -x+y, -z'
 22 'y, -x+y, 1/2+z'
 23 'y, x, -z'
 24 'y, x, 1/2+z'
loop_
 _atom_type_symbol
 O
 Fe
 In
loop_
 _atom_site_label
 _atom_site_type_symbol
 _atom_site_symmetry_multiplicity
 _atom_site_Wyckoff_symbol
 _atom_site_fract_x
 _atom_site_fract_y
 _atom_site_fract_z
 _atom_site_occupancy
 O1 O 4 f 0.333333 0.666667 0.085 1
 Fe Fe 2 c 0.333333 0.666667 0.25 1
 O2 O 2 b 0 0 0.25 1
 In In 2 a 0 0 0 1


_exptl_crystal_colour                    brown
_exptl_crystal_density_meas              ?
_exptl_crystal_density_diffrn            6.22
_cell_measurement_temperature            296
_cell_measurement_radiation              'X-rays, Mo Ka'
_cell_measurement_wavelength             0.71069
_cell_measurement_reflns_used            25
_diffrn_ambient_temperature              296
_diffrn_measurement_device               'automatic diffractometer'
_diffrn_measurement_device_type          'Enraf-Nonius CAD4'
_diffrn_radiation_type                   'X-rays, Mo Ka'
_diffrn_radiation_wavelength             0.71069
_diffrn_reflns_number                    1027
_exptl_absorpt_coefficient_mu            15.66
_exptl_absorpt_correction_type           empirical
_computing_structure_solution            'direct methods, Fourier synthesis'
_refine_ls_number_parameters             11
_refine_ls_number_reflns                 85
_refine_ls_R_factor_gt                   0.014
_refine_ls_wR_factor_gt                  0.015

# End of data set 1501687


