##############################################################################
#                                                                            #
# Fe-P             # FeP4 mon2                                     #  532216 #
#                                                                            #
##############################################################################
#                                                                            #
#                           Pearson's Crystal Data                           #
#      Crystal Structure Database for Inorganic Compounds (on DVD)           #
#                              Release 2017/18                               #
#                  Editors: Pierre Villars and Karin Cenzual                 #
#                                                                            #
#   Copyright (c) ASM International & Material Phases Data System (MPDS),    #
# Switzerland & National Institute for Materials Science (NIMS), Japan, 2017 #
#                   All rights reserved. Version 2017.08                     #
#                                                                            #
#   This copy of Pearson's Crystal Data is licensed to:                      #
#   University of Alberta, Chemistry Department, 1-5 Installations License         #
#                                                                            #
##############################################################################

data_532216
_audit_creation_date                     2017-12-04
_audit_creation_method
;
Pearson's Crystal Data browser
;
#_database_code_PCD                      532216

# Entry summary

_chemical_formula_structural             'Fe P~4~'
_chemical_formula_sum                    'Fe P4'
_chemical_name_mineral                   ?
_chemical_compound_source                ?
_chemical_name_structure_type            FeP~4~,mS40,15
_chemical_formula_weight                 179.7

# Bibliographic data

_publ_section_title
'\g-FeP~4~, a new photosensitive semiconductor'                               
_journal_coden_ASTM                      MRBUAC
_journal_name_full                       'Mater. Res. Bull.'
_journal_year                            1987
_journal_volume                          22
_journal_page_first                      543
_journal_page_last                       549
_journal_language                        English
loop_
 _publ_author_name
 _publ_author_address
'Fiechter S.'
;
Hahn Meitner Institute
Bereich Strahlenchemie
Berlin
Germany
;
'Tributsch H.'
;
Hahn Meitner Institute
Bereich Strahlenchemie
Berlin
Germany
;
'Evain M.'
;
Nantes University
Laboratoire de Chimie des Solides
Nantes
France
;
'Brec R.'
;
Nantes University
Laboratoire de Chimie des Solides
Nantes
France
;

# Standardized crystallographic data

_cell_length_a                           5.0543
_cell_length_b                           10.407
_cell_length_c                           11.069
_cell_angle_alpha                        90
_cell_angle_beta                         91.14
_cell_angle_gamma                        90
_cell_volume                             582.12
_cell_formula_units_Z                    8
_space_group_IT_number                   15
_space_group_name_H-M_alt                'C 1 2/c 1'
loop_
 _space_group_symop_id
 _space_group_symop_operation_xyz
 1 'x, y, z'
 2 '-x, -y, -z'
 3 '-x, y, 1/2-z'
 4 'x, -y, 1/2+z'
 5 '1/2+x, 1/2+y, z'
 6 '1/2-x, 1/2-y, -z'
 7 '1/2-x, 1/2+y, 1/2-z'
 8 '1/2+x, 1/2-y, 1/2+z'

# Atomic positions taken from type-defining entry

loop_
 _atom_type_symbol
 P
 Fe
loop_
 _atom_site_label
 _atom_site_type_symbol
 _atom_site_symmetry_multiplicity
 _atom_site_Wyckoff_symbol
 _atom_site_fract_x
 _atom_site_fract_y
 _atom_site_fract_z
 _atom_site_occupancy
 P1 P 8 f 0.0396 0.0926 0.04951 1
 P2 P 8 f 0.0608 0.3973 0.02394 1
 P3 P 8 f 0.2001 0.4275 0.21573 1
 P4 P 8 f 0.2997 0.2328 0.2921 1
 Fe1 Fe 4 e 0 0.07601 0.25 1
 Fe2 Fe 4 d 0.25 0.25 0.5 1


_exptl_crystal_colour                    ?
_exptl_crystal_density_meas              ?
_exptl_crystal_density_diffrn            4.10
_cell_measurement_temperature            ?
_cell_measurement_radiation              'X-rays, Cu Ka1'
_cell_measurement_wavelength             1.54051
_pd_proc_wavelength                      1.54051
_cell_measurement_reflns_used            ?
_diffrn_ambient_temperature              ?
_diffrn_measurement_device               'automatic diffractometer'
_diffrn_measurement_device_type          ?
_diffrn_radiation_type                   ?
_diffrn_reflns_number                    ?
_exptl_absorpt_coefficient_mu            ?
_exptl_absorpt_correction_type           ?
_computing_structure_solution            ?
_refine_ls_number_parameters             ?
_refine_ls_number_reflns                 ?
_refine_ls_R_factor_gt                   ?
_refine_ls_wR_factor_gt                  ?

# Published diffraction lines

loop_
 _refln_index_h
 _refln_index_k
 _refln_index_l
 _refln_d_spacing
 _refln_intensity_meas
 1 1 0 45.51 8.7
 1 1 -1 42.35 33.8
 0 2 2 37.9 5.7
 1 1 -2 35.48 13.0
 1 1 -3 28.92 2.6
 1 3 0 28.51 0.8
 0 0 4 27.66 58.0
 1 3 1 27.63 100.0
 0 4 2 23.551 1.5
 2 0 -2 23.161 6.8
 2 2 0 22.728 20.4
 2 2 -1 22.349 9.9
 2 2 1 22.181 4.0
 1 1 -5 20.039 18.0
 1 5 1 18.99 6.1
 2 4 0 18.117 16.7
 2 4 -1 17.931 9.8
 2 4 1 17.852 6.4
 2 2 -4 17.71 9.7
 2 2 4 17.412 53.9
 0 6 0 17.336 22.2
 1 1 -6 17.202 9.2
 3 1 0 16.623 5.4
 3 1 1 16.396 12.0
 3 1 2 15.838 3.9
 2 4 -4 15.258 11.3
 2 0 6 14.754 6.8

# End of data set 532216


