##############################################################################
#                                                                            #
# Fe-P             # FeP4 mon1                                     # 1503508 #
#                                                                            #
##############################################################################
#                                                                            #
#                           Pearson's Crystal Data                           #
#      Crystal Structure Database for Inorganic Compounds (on DVD)           #
#                              Release 2017/18                               #
#                  Editors: Pierre Villars and Karin Cenzual                 #
#                                                                            #
#   Copyright (c) ASM International & Material Phases Data System (MPDS),    #
# Switzerland & National Institute for Materials Science (NIMS), Japan, 2017 #
#                   All rights reserved. Version 2017.08                     #
#                                                                            #
#   This copy of Pearson's Crystal Data is licensed to:                      #
#   University of Alberta, Chemistry Department, 1-5 Installations License         #
#                                                                            #
##############################################################################

data_1503508
_audit_creation_date                     2017-12-05
_audit_creation_method
;
Pearson's Crystal Data browser
;
#_database_code_PCD                      1503508

# Entry summary

_chemical_formula_structural             'Fe P~4~'
_chemical_formula_sum                    'Fe P4'
_chemical_name_mineral                   ?
_chemical_compound_source                ?
_chemical_name_structure_type            FeP~4~,mP30,14
_chemical_formula_weight                 179.7

# Bibliographic data

_publ_section_title
;
Synthesis and crystal structures of the polyphosphides FeP~4~, RuP~4~, and OsP~4~
;
_journal_coden_ASTM                      ACACBN
_journal_name_full                       'Acta Crystallogr. A'
_journal_year                            1978
_journal_volume                          34
_journal_page_first                      S166
_journal_page_last                       S167
_journal_language                        English
loop_
 _publ_author_name
 _publ_author_address
'Jeitschko W.'
;
Giessen Justus Liebig University
Institut f\"ur Anorganische und Analytische Chemie
Giessen
Germany
;
'Braun D.J.'
;
Giessen Justus Liebig University
Institut f\"ur Anorganische und Analytische Chemie
Giessen
Germany
;

# Standardized crystallographic data

_cell_length_a                           4.619
_cell_length_b                           13.67
_cell_length_c                           7.002
_cell_angle_alpha                        90
_cell_angle_beta                         101.5
_cell_angle_gamma                        90
_cell_volume                             433.2
_cell_formula_units_Z                    6
_space_group_IT_number                   14
_space_group_name_H-M_alt                'P 1 21/c 1'
loop_
 _space_group_symop_id
 _space_group_symop_operation_xyz
 1 'x, y, z'
 2 '-x, -y, -z'
 3 '-x, 1/2+y, 1/2-z'
 4 'x, 1/2-y, 1/2+z'

# Atomic positions taken from type-defining entry

loop_
 _atom_type_symbol
 P
 Fe
loop_
 _atom_site_label
 _atom_site_type_symbol
 _atom_site_symmetry_multiplicity
 _atom_site_Wyckoff_symbol
 _atom_site_fract_x
 _atom_site_fract_y
 _atom_site_fract_z
 _atom_site_occupancy
 P1 P 4 e 0.0744 0.2253 0.3650 1
 Fe1 Fe 4 e 0.1400 0.8301 0.3809 1
 P2 P 4 e 0.1975 0.4465 0.2493 1
 P3 P 4 e 0.2647 0.1133 0.1962 1
 P4 P 4 e 0.3687 0.5553 0.0709 1
 P5 P 4 e 0.5075 0.2192 0.0327 1
 P6 P 4 e 0.6542 0.3925 0.3544 1
 Fe2 Fe 2 a 0 0 0 1


_exptl_crystal_colour                    ?
_exptl_crystal_density_meas              ?
_exptl_crystal_density_diffrn            4.13
_cell_measurement_temperature            ?
_cell_measurement_radiation              X-rays
_cell_measurement_reflns_used            ?
_diffrn_ambient_temperature              ?
_diffrn_measurement_device               'automatic diffractometer'
_diffrn_measurement_device_type          ?
_diffrn_radiation_type                   ?
_diffrn_reflns_number                    ?
_exptl_absorpt_coefficient_mu            ?
_exptl_absorpt_correction_type           ?
_computing_structure_solution            ?
_refine_ls_number_parameters             ?
_refine_ls_number_reflns                 ?
_refine_ls_R_factor_gt                   ?
_refine_ls_wR_factor_gt                  ?

# End of data set 1503508


