##############################################################################
#                                                                            #
# Fe-P-S           # FePS3 lt                                      #  558102 #
#                                                                            #
##############################################################################
#                                                                            #
#                           Pearson's Crystal Data                           #
#      Crystal Structure Database for Inorganic Compounds (on DVD)           #
#                              Release 2017/18                               #
#                  Editors: Pierre Villars and Karin Cenzual                 #
#                                                                            #
#   Copyright (c) ASM International & Material Phases Data System (MPDS),    #
# Switzerland & National Institute for Materials Science (NIMS), Japan, 2017 #
#                   All rights reserved. Version 2017.08                     #
#                                                                            #
#   This copy of Pearson's Crystal Data is licensed to:                      #
#   University of Alberta, Chemistry Department, 1-5 Installations License         #
#                                                                            #
##############################################################################

data_558102
_audit_creation_date                     2017-12-04
_audit_creation_method
;
Pearson's Crystal Data browser
;
#_database_code_PCD                      558102

# Entry summary

_chemical_formula_structural             'Fe P S~3~'
_chemical_formula_sum                    'Fe P S3'
_chemical_name_mineral                   ?
_chemical_compound_source                ?
_chemical_name_structure_type            FePS~3~,mS20,12
_chemical_formula_weight                 183.0

# Bibliographic data

_publ_section_title
'Neutron Diffraction Study on MnPS~3~ and FePS~3~'                            
_journal_coden_ASTM                      JUPSAU
_journal_name_full                       'J. Phys. Soc. Jpn.'
_journal_year                            1983
_journal_volume                          52
_journal_page_first                      3919
_journal_page_last                       3926
_journal_language                        English
loop_
 _publ_author_name
 _publ_author_address
'Kurosawa K.'
;
Sakai Osaka Prefecture University
Department of Electronics
Sakai / Osaka
Japan
;
'Saito S.'
;
Sakai Osaka Prefecture University
Department of Electronics
Sakai / Osaka
Japan
;
'Yamaguchi Y.'
;
Sendai Miyagi Tohoku University
Research Institute of Iron, Steel and Other Metals
Sendai / Miyagi
Japan
;

# Standardized crystallographic data

_cell_length_a                           5.97
_cell_length_b                           10.29
_cell_length_c                           6.71
_cell_angle_alpha                        90
_cell_angle_beta                         106.8
_cell_angle_gamma                        90
_cell_volume                             394.6
_cell_formula_units_Z                    4
_space_group_IT_number                   12
_space_group_name_H-M_alt                'C 1 2/m 1'
loop_
 _space_group_symop_id
 _space_group_symop_operation_xyz
 1 'x, y, z'
 2 '-x, -y, -z'
 3 '-x, y, -z'
 4 'x, -y, z'
 5 '1/2+x, 1/2+y, z'
 6 '1/2-x, 1/2-y, -z'
 7 '1/2-x, 1/2+y, -z'
 8 '1/2+x, 1/2-y, z'
loop_
 _atom_type_symbol
 S
 P
 Fe
loop_
 _atom_site_label
 _atom_site_type_symbol
 _atom_site_symmetry_multiplicity
 _atom_site_Wyckoff_symbol
 _atom_site_fract_x
 _atom_site_fract_y
 _atom_site_fract_z
 _atom_site_occupancy
 S2 S 8 j 0.2481 0.3341 0.2479 1
 S1 S 4 i 0.2508 0 0.2474 1
 P P 4 i 0.5571 0 0.1708 1
 Fe Fe 4 g 0 0.1672 0 1


_exptl_crystal_colour                    ?
_exptl_crystal_density_meas              ?
_exptl_crystal_density_diffrn            3.08
_cell_measurement_temperature            ?
_cell_measurement_radiation              neutrons
_cell_measurement_wavelength             1.06
_pd_proc_wavelength                      1.06
_cell_measurement_reflns_used            ?
_diffrn_ambient_temperature              ?
_diffrn_measurement_device               'automatic diffractometer'
_diffrn_measurement_device_type
'Japan, Tokai, Japan Atomic Energy Research Institute, JRR-3 reactor'         
_diffrn_radiation_type                   neutrons
_diffrn_radiation_wavelength             1.06
_diffrn_reflns_number                    ?
_exptl_absorpt_coefficient_mu            ?
_exptl_absorpt_correction_type           ?
_computing_structure_solution            'starting values from the literature'
_refine_ls_number_parameters             ?
_refine_ls_number_reflns                 ?
_refine_ls_R_factor_gt                   ?
_refine_ls_wR_factor_gt                  ?
_pd_proc_ls_proof_R_factor               ?
_pd_proc_ls_proof_wR_factor              ?
_refine_ls_R_I_factor                    ?

# Published diffraction lines

loop_
 _refln_index_h
 _refln_index_k
 _refln_index_l
 _refln_d_spacing
 _refln_intensity_meas
 0 0 1 95.7 90.90
 0 2 1 152 0.17
 1 1 1 174 0.22
 0 0 2 190 0.91
 1 1 -2 197.5 0.30
 1 3 0 207.5 2.16
 2 0 0 214.5 0.34
 0 2 2 224.5 0.79
 1 3 1 241.5 1.14
 1 1 2 252.5 0.31
 2 0 1 260 0.97
 1 1 -3 279.5 0.34
 0 0 3 286 1.48

# End of data set 558102


