##############################################################################
#                                                                            #
# Fe-P-S           # FePS3 lt                                      #  462355 #
#                                                                            #
##############################################################################
#                                                                            #
#                           Pearson's Crystal Data                           #
#      Crystal Structure Database for Inorganic Compounds (on DVD)           #
#                              Release 2017/18                               #
#                  Editors: Pierre Villars and Karin Cenzual                 #
#                                                                            #
#   Copyright (c) ASM International & Material Phases Data System (MPDS),    #
# Switzerland & National Institute for Materials Science (NIMS), Japan, 2017 #
#                   All rights reserved. Version 2017.08                     #
#                                                                            #
#   This copy of Pearson's Crystal Data is licensed to:                      #
#   University of Alberta, Chemistry Department, 1-5 Installations License         #
#                                                                            #
##############################################################################

data_462355
_audit_creation_date                     2017-12-01
_audit_creation_method
;
Pearson's Crystal Data browser
;
#_database_code_PCD                      462355

# Entry summary

_chemical_formula_structural             'Fe P S~3~'
_chemical_formula_sum                    'Fe P S3'
_chemical_name_mineral                   ?
_chemical_compound_source                ?
_chemical_name_structure_type            FePS~3~,mS20,12
_chemical_formula_weight                 183.0

# Bibliographic data

_publ_section_title
;
Preparation and Properties of Some Transition Metal Phosphorus Trisulfide Compounds
;
_journal_coden_ASTM                      JSSCBI
_journal_name_full                       'J. Solid State Chem.'
_journal_year                            1973
_journal_volume                          7
_journal_page_first                      461
_journal_page_last                       467
_journal_language                        English
loop_
 _publ_author_name
 _publ_author_address
'Taylor B.E.'
;
Rhode Island Providence Brown University
Department of Chemistry
Providence
U.S.A. Rhode Island
;
'Steger J.J.'
;
Rhode Island Providence Brown University
Department of Chemistry
Providence
U.S.A. Rhode Island
;
'Wold A.'
;
Rhode Island Providence Brown University
Department of Chemistry
Providence
U.S.A. Rhode Island
;

# Standardized crystallographic data

_cell_length_a                           5.949
_cell_length_b                           10.288
_cell_length_c                           6.72
_cell_angle_alpha                        90
_cell_angle_beta                         107.17
_cell_angle_gamma                        90
_cell_volume                             393
_cell_formula_units_Z                    4
_space_group_IT_number                   12
_space_group_name_H-M_alt                'C 1 2/m 1'
loop_
 _space_group_symop_id
 _space_group_symop_operation_xyz
 1 'x, y, z'
 2 '-x, -y, -z'
 3 '-x, y, -z'
 4 'x, -y, z'
 5 '1/2+x, 1/2+y, z'
 6 '1/2-x, 1/2-y, -z'
 7 '1/2-x, 1/2+y, -z'
 8 '1/2+x, 1/2-y, z'

# Atomic positions taken from type-defining entry

loop_
 _atom_type_symbol
 S
 P
 Fe
loop_
 _atom_site_label
 _atom_site_type_symbol
 _atom_site_symmetry_multiplicity
 _atom_site_Wyckoff_symbol
 _atom_site_fract_x
 _atom_site_fract_y
 _atom_site_fract_z
 _atom_site_occupancy
 S1 S 8 j 0.2488 0.3345 0.2485 1
 S2 S 4 i 0.2501 0 0.247 1
 P1 P 4 i 0.5566 0 0.1692 1
 Fe1 Fe 4 g 0 0.1674 0 1


_exptl_crystal_colour                    ?
_exptl_crystal_density_meas              3.07
_exptl_crystal_density_diffrn            3.09
_cell_measurement_temperature            ?
_cell_measurement_radiation              'X-rays, Cu Ka'
_cell_measurement_wavelength             1.5405
_pd_proc_wavelength                      1.5405
_cell_measurement_reflns_used            ?
_diffrn_ambient_temperature              ?
_diffrn_measurement_device               'Norelco film'
_diffrn_measurement_device_type          ?
_diffrn_radiation_type                   ?
_diffrn_reflns_number                    ?
_exptl_absorpt_coefficient_mu            ?
_exptl_absorpt_correction_type           ?
_computing_structure_solution            ?
_refine_ls_number_parameters             ?
_refine_ls_number_reflns                 ?
_refine_ls_R_factor_gt                   ?
_refine_ls_wR_factor_gt                  ?

# Published diffraction lines

loop_
 _refln_index_h
 _refln_index_k
 _refln_index_l
 _refln_d_spacing
 _refln_intensity_meas
 1 3 0 0.6879 ?
 1 3 1 0.9274 ?
 1 3 -2 1.074 ?
 0 0 3 1.2983 ?
 1 3 -3 1.698 ?
 0 6 0 2.0175 ?
 0 0 4 2.3025 ?
 2 6 -2 2.9448 ?
 0 0 5 3.5992 ?
 0 6 4 4.3206 ?
 2 0 -6 4.7662 ?
 1 3 -7 7.0663 ?

# End of data set 462355


