##############################################################################
#                                                                            #
# Fe-P-S           # FePS3 lt                                      #  301313 #
#                                                                            #
##############################################################################
#                                                                            #
#                           Pearson's Crystal Data                           #
#      Crystal Structure Database for Inorganic Compounds (on DVD)           #
#                              Release 2017/18                               #
#                  Editors: Pierre Villars and Karin Cenzual                 #
#                                                                            #
#   Copyright (c) ASM International & Material Phases Data System (MPDS),    #
# Switzerland & National Institute for Materials Science (NIMS), Japan, 2017 #
#                   All rights reserved. Version 2017.08                     #
#                                                                            #
#   This copy of Pearson's Crystal Data is licensed to:                      #
#   University of Alberta, Chemistry Department, 1-5 Installations License         #
#                                                                            #
##############################################################################

data_301313
_audit_creation_date                     2017-12-01
_audit_creation_method
;
Pearson's Crystal Data browser
;
#_database_code_PCD                      301313

# Entry summary

_chemical_formula_structural             'Fe P S~3~'
_chemical_formula_sum                    'Fe P S3'
_chemical_name_mineral                   ?
_chemical_compound_source                ?
_chemical_name_structure_type            FePS~3~,mS20,12
_chemical_formula_weight                 183.0

# Bibliographic data

_publ_section_title
;
\"Uber die Darstellung und Eigenschaften von Hexathio- und Hexaselenohypodiphosphaten
;
_journal_coden_ASTM                      ZAACAB
_journal_name_full                       'Z. Anorg. Allg. Chem.'
_journal_year                            1973
_journal_volume                          396
_journal_page_first                      271
_journal_page_last                       278
_journal_language                        German
loop_
 _publ_author_name
 _publ_author_address
'Klingen W.'
;
Stuttgart Hohenheim University
Institut f\"ur Anorganische und Physikalische Chemie
Stuttgart
Germany
;
'Ott R.T.'
;
Stuttgart Hohenheim University
Institut f\"ur Anorganische und Physikalische Chemie
Stuttgart
Germany
;
'Hahn H.'
;
Stuttgart Hohenheim University
Institut f\"ur Anorganische und Physikalische Chemie
Stuttgart
Germany
;

# Standardized crystallographic data

_cell_length_a                           5.93
_cell_length_b                           10.28
_cell_length_c                           6.72
_cell_angle_alpha                        90
_cell_angle_beta                         107.1
_cell_angle_gamma                        90
_cell_volume                             391.5
_cell_formula_units_Z                    4
_space_group_IT_number                   12
_space_group_name_H-M_alt                'C 1 2/m 1'
loop_
 _space_group_symop_id
 _space_group_symop_operation_xyz
 1 'x, y, z'
 2 '-x, -y, -z'
 3 '-x, y, -z'
 4 'x, -y, z'
 5 '1/2+x, 1/2+y, z'
 6 '1/2-x, 1/2-y, -z'
 7 '1/2-x, 1/2+y, -z'
 8 '1/2+x, 1/2-y, z'

# Atomic positions taken from type-defining entry

loop_
 _atom_type_symbol
 S
 P
 Fe
loop_
 _atom_site_label
 _atom_site_type_symbol
 _atom_site_symmetry_multiplicity
 _atom_site_Wyckoff_symbol
 _atom_site_fract_x
 _atom_site_fract_y
 _atom_site_fract_z
 _atom_site_occupancy
 S1 S 8 j 0.2488 0.3345 0.2485 1
 S2 S 4 i 0.2501 0 0.247 1
 P1 P 4 i 0.5566 0 0.1692 1
 Fe1 Fe 4 g 0 0.1674 0 1


_exptl_crystal_colour                    black
_exptl_crystal_density_meas              3.08
_exptl_crystal_density_diffrn            3.10
_cell_measurement_temperature            ?
_cell_measurement_radiation              X-rays
_cell_measurement_reflns_used            ?
_diffrn_ambient_temperature              ?
_diffrn_measurement_device
'precession and Weissenberg photographs'                                      
_diffrn_measurement_device_type          ?
_diffrn_radiation_type                   ?
_diffrn_reflns_number                    ?
_exptl_absorpt_coefficient_mu            ?
_exptl_absorpt_correction_type           ?
_computing_structure_solution            ?
_refine_ls_number_parameters             ?
_refine_ls_number_reflns                 ?
_refine_ls_R_factor_gt                   ?
_refine_ls_wR_factor_gt                  ?

# End of data set 301313


