##############################################################################
#                                                                            #
# Fe-P-S           # FePS3 lt                                      #  540883 #
#                                                                            #
##############################################################################
#                                                                            #
#                           Pearson's Crystal Data                           #
#      Crystal Structure Database for Inorganic Compounds (on DVD)           #
#                              Release 2017/18                               #
#                  Editors: Pierre Villars and Karin Cenzual                 #
#                                                                            #
#   Copyright (c) ASM International & Material Phases Data System (MPDS),    #
# Switzerland & National Institute for Materials Science (NIMS), Japan, 2017 #
#                   All rights reserved. Version 2017.08                     #
#                                                                            #
#   This copy of Pearson's Crystal Data is licensed to:                      #
#   University of Alberta, Chemistry Department, 1-5 Installations License         #
#                                                                            #
##############################################################################

data_540883
_audit_creation_date                     2017-12-04
_audit_creation_method
;
Pearson's Crystal Data browser
;
#_database_code_PCD                      540883

# Entry summary

_chemical_formula_structural             'Fe P S~3~'
_chemical_formula_sum                    'Fe P S3'
_chemical_name_mineral                   ?
_chemical_compound_source                ?
_chemical_name_structure_type            FePS~3~,mS20,12
_chemical_formula_weight                 183.0

# Bibliographic data

_publ_section_title
'\"Uber die Kristallstrukturen von Fe~2~P~2~Se~6~ und Fe~2~P~2~S~6~'          
_journal_coden_ASTM                      ZAACAB
_journal_name_full                       'Z. Anorg. Allg. Chem.'
_journal_year                            1973
_journal_volume                          401
_journal_page_first                      97
_journal_page_last                       112
_journal_language                        German
loop_
 _publ_author_name
 _publ_author_address
'Klingen W.'
;
Stuttgart Hohenheim University
Institut f\"ur Anorganische und Physikalische Chemie
Stuttgart
Germany
;
'Eulenberger G.R.'
;
Stuttgart Hohenheim University
Institut f\"ur Anorganische und Physikalische Chemie
Stuttgart
Germany
;
'Hahn H.'
;
Stuttgart Hohenheim University
Institut f\"ur Anorganische und Physikalische Chemie
Stuttgart
Germany
;

# Standardized crystallographic data

_cell_length_a                           5.934
_cell_length_b                           10.28
_cell_length_c                           6.772
_cell_angle_alpha                        90
_cell_angle_beta                         107.2
_cell_angle_gamma                        90
_cell_volume                             394.6
_cell_formula_units_Z                    4
_space_group_IT_number                   12
_space_group_name_H-M_alt                'C 1 2/m 1'
loop_
 _space_group_symop_id
 _space_group_symop_operation_xyz
 1 'x, y, z'
 2 '-x, -y, -z'
 3 '-x, y, -z'
 4 'x, -y, z'
 5 '1/2+x, 1/2+y, z'
 6 '1/2-x, 1/2-y, -z'
 7 '1/2-x, 1/2+y, -z'
 8 '1/2+x, 1/2-y, z'
loop_
 _atom_type_symbol
 S
 P
 Fe
loop_
 _atom_site_label
 _atom_site_type_symbol
 _atom_site_symmetry_multiplicity
 _atom_site_Wyckoff_symbol
 _atom_site_fract_x
 _atom_site_fract_y
 _atom_site_fract_z
 _atom_site_occupancy
 S(2) S 8 j 0.2481 0.3341 0.2479 1
 S(1) S 4 i 0.2508 0 0.2474 1
 P P 4 i 0.5571 0 0.1708 1
 Fe Fe 4 g 0 0.1672 0 1


_exptl_crystal_colour                    ?
_exptl_crystal_density_meas              ?
_exptl_crystal_density_diffrn            3.08
_cell_measurement_temperature            ?
_cell_measurement_radiation              'X-rays, Mo Ka'
_cell_measurement_reflns_used            ?
_diffrn_ambient_temperature              ?
_diffrn_measurement_device               'Weissenberg photographs'
_diffrn_measurement_device_type          ?
_diffrn_radiation_type                   'X-rays, Mo Ka'
_diffrn_reflns_number                    ?
_exptl_absorpt_coefficient_mu            ?
_exptl_absorpt_correction_type           ?
_computing_structure_solution            'Patterson and Fourier synthesis'
_refine_ls_number_parameters             ?
_refine_ls_number_reflns                 ?
_refine_ls_R_factor_gt                   0.151
_refine_ls_wR_factor_gt                  ?

# End of data set 540883


