##############################################################################
#                                                                            #
# Fe-S             # FeS ht1                                       #  455596 #
#                                                                            #
##############################################################################
#                                                                            #
#                           Pearson's Crystal Data                           #
#      Crystal Structure Database for Inorganic Compounds (on DVD)           #
#                              Release 2017/18                               #
#                  Editors: Pierre Villars and Karin Cenzual                 #
#                                                                            #
#   Copyright (c) ASM International & Material Phases Data System (MPDS),    #
# Switzerland & National Institute for Materials Science (NIMS), Japan, 2017 #
#                   All rights reserved. Version 2017.08                     #
#                                                                            #
#   This copy of Pearson's Crystal Data is licensed to:                      #
#   University of Alberta, Chemistry Department, 1-5 Installations License         #
#                                                                            #
##############################################################################

data_455596
_audit_creation_date                     2017-12-01
_audit_creation_method
;
Pearson's Crystal Data browser
;
#_database_code_PCD                      455596

# Entry summary

_chemical_formula_structural             'Fe~0.985~ S'
_chemical_formula_sum                    'Fe S'
_chemical_name_mineral                   ?
_chemical_compound_source                ?
_chemical_name_structure_type            Nb~0.92~S,hP16,186
_chemical_formula_weight                 87.1

# Bibliographic data

_publ_section_title
;
II. Structural Aspects of the \a Transition in Off-Stoichiometric Fe~1-x~S Crystals
;
_journal_coden_ASTM                      JSSCBI
_journal_name_full                       'J. Solid State Chem.'
_journal_year                            1990
_journal_volume                          84
_journal_page_first                      211
_journal_page_last                       225
_journal_language                        English
loop_
 _publ_author_name
 _publ_author_address
'Keller Besrest F.'
;
Paris V Ren\'e Descartes University
Paris
France
;
'Collin G.'
;
Paris V Ren\'e Descartes University
Paris
France
;

# Standardized crystallographic data

_cell_length_a                           6.96
_cell_length_b                           6.96
_cell_length_c                           5.821
_cell_angle_alpha                        90
_cell_angle_beta                         90
_cell_angle_gamma                        120
_cell_volume                             244.2
_cell_formula_units_Z                    8
_space_group_IT_number                   186
_space_group_name_H-M_alt                'P 63 m c'
loop_
 _space_group_symop_id
 _space_group_symop_operation_xyz
 1 'x, y, z'
 2 '-x+y, -x, z'
 3 '-x+y, y, z'
 4 '-x, -x+y, 1/2+z'
 5 '-x, -y, 1/2+z'
 6 '-y, -x, z'
 7 '-y, x-y, z'
 8 'x, x-y, z'
 9 'x-y, -y, 1/2+z'
 10 'x-y, x, 1/2+z'
 11 'y, -x+y, 1/2+z'
 12 'y, x, 1/2+z'
loop_
 _atom_type_symbol
 Fe
 S
loop_
 _atom_site_label
 _atom_site_type_symbol
 _atom_site_symmetry_multiplicity
 _atom_site_Wyckoff_symbol
 _atom_site_fract_x
 _atom_site_fract_y
 _atom_site_fract_z
 _atom_site_occupancy
 Fe1 Fe 6 c 0.4891 0.5109 0.006 1
 S1 S 6 c 0.8342 0.1658 0.2508 1
 S2 S 2 b 0.333333 0.666667 0.269 1
 Fe2 Fe 2 a 0 0 0.0 1


_exptl_crystal_colour                    ?
_exptl_crystal_density_meas              ?
_exptl_crystal_density_diffrn            4.74
_cell_measurement_temperature            411
_cell_measurement_radiation              'X-rays, Mo Ka'
_cell_measurement_reflns_used            ?
_diffrn_ambient_temperature              411
_diffrn_measurement_device               'automatic diffractometer'
_diffrn_measurement_device_type          ?
_diffrn_radiation_type                   'X-rays, Mo Ka'
_diffrn_reflns_number                    ?
_exptl_absorpt_coefficient_mu            ?
_exptl_absorpt_correction_type           ?
_computing_structure_solution            'starting values from the literature'
_refine_ls_number_parameters             ?
_refine_ls_number_reflns                 197
_refine_ls_R_factor_gt                   0.045
_refine_ls_wR_factor_gt                  ?
_pd_proc_ls_proof_R_factor               ?
_pd_proc_ls_proof_wR_factor              ?
_refine_ls_R_I_factor                    ?

# End of data set 455596


