##############################################################################
#                                                                            #
# Fe-O-Sb          # FeSb2O4 hp1                                   # 1522817 #
#                                                                            #
##############################################################################
#                                                                            #
#                           Pearson's Crystal Data                           #
#      Crystal Structure Database for Inorganic Compounds (on DVD)           #
#                              Release 2017/18                               #
#                  Editors: Pierre Villars and Karin Cenzual                 #
#                                                                            #
#   Copyright (c) ASM International & Material Phases Data System (MPDS),    #
# Switzerland & National Institute for Materials Science (NIMS), Japan, 2017 #
#                   All rights reserved. Version 2017.08                     #
#                                                                            #
#   This copy of Pearson's Crystal Data is licensed to:                      #
#   University of Alberta, Chemistry Department, 1-5 Installations License         #
#                                                                            #
##############################################################################

data_1522817
_audit_creation_date                     2017-12-05
_audit_creation_method
;
Pearson's Crystal Data browser
;
#_database_code_PCD                      1522817

# Entry summary

_chemical_formula_structural             'Fe Sb~2~ O~4~'
_chemical_formula_sum                    'Fe O4 Sb2'
_chemical_name_mineral                   ?
_chemical_compound_source                ?
_chemical_name_structure_type            FeSb~2~O~4~,mP28,14
_chemical_formula_weight                 363.3

# Bibliographic data

_publ_section_title
;
Advances in data reduction of high-pressure X-ray powder diffraction data from two-dimensional detectors: a case study of schafarzikite (FeSb~2~O~4~)
;
_journal_coden_ASTM                      JCOMEL
_journal_name_full                       'J. Phys.: Condens. Matter'
_journal_year                            2006
_journal_volume                          18
_journal_page_first                      S1021
_journal_page_last                       S1037
_journal_language                        English
loop_
 _publ_author_name
 _publ_author_address
'Hinrichsen B.'
;
Max Planck Society
Stuttgart
Germany
;
'Dinnebier R.E.'
;
Max Planck Society
Stuttgart
Germany
;
'Rajiv P.'
;
Max Planck Society
Stuttgart
Germany
;
'Hanfland M.'
;
European Synchrotron Radiation Facility (ESRF)
Grenoble
France
;
'Grzechnik A.'
;
Bilbao Pais Vasco University
Departamento de Fisica de la Materia Condensada
Bilbao
Spain
;
'Jansen M.'
;
Max Planck Society
Stuttgart
Germany
;

# Standardized crystallographic data

_cell_length_a                           5.7792
_cell_length_b                           8.3134
_cell_length_c                           8.4545
_cell_angle_alpha                        90
_cell_angle_beta                         91.879
_cell_angle_gamma                        90
_cell_volume                             406
_cell_formula_units_Z                    4
_space_group_IT_number                   14
_space_group_name_H-M_alt                'P 1 21/c 1'
loop_
 _space_group_symop_id
 _space_group_symop_operation_xyz
 1 'x, y, z'
 2 '-x, -y, -z'
 3 '-x, 1/2+y, 1/2-z'
 4 'x, 1/2-y, 1/2+z'
loop_
 _atom_type_symbol
 O
 Sb
 Fe
loop_
 _atom_site_label
 _atom_site_type_symbol
 _atom_site_symmetry_multiplicity
 _atom_site_Wyckoff_symbol
 _atom_site_fract_x
 _atom_site_fract_y
 _atom_site_fract_z
 _atom_site_occupancy
 O4 O 4 e 0.0 0.148 0.088 1
 Sb2 Sb 4 e 0.002 0.158 0.319 1
 O2 O 4 e 0.231 0.833 0.196 1
 Fe Fe 4 e 0.276 0.0 0.004 1
 O1 O 4 e 0.277 0.303 0.337 1
 Sb1 Sb 4 e 0.49 0.328 0.158 1
 O3 O 4 e 0.517 0.094 0.18 1


_exptl_crystal_colour                    ?
_exptl_crystal_density_meas              ?
_exptl_crystal_density_diffrn            5.94
_cell_measurement_temperature            290
_cell_measurement_pressure               4.2e+006
_cell_measurement_radiation              'X-rays, synchrotron'
_cell_measurement_wavelength             0.413251
_pd_proc_wavelength                      0.413251
_cell_measurement_reflns_used            ?
_diffrn_ambient_pressure                 4.2e+006
_diffrn_ambient_temperature              290
_diffrn_measurement_device               'automatic diffractometer'
_diffrn_measurement_device_type
'France, Grenoble, European Synchrotron Radiation Facility ESRF, ID09A'       
_diffrn_radiation_type                   'X-rays, synchrotron'
_diffrn_radiation_wavelength             0.413251
_diffrn_reflns_number                    ?
_diffrn_reflns_theta_min                 1
_diffrn_reflns_theta_max                 12.23
_pd_proc_2theta_range_min                2
_pd_proc_2theta_range_max                24.46
_exptl_absorpt_coefficient_mu            ?
_exptl_absorpt_correction_type           ?
_computing_structure_solution            'starting values from the literature'
_refine_ls_number_parameters             43
_refine_ls_number_reflns                 187
_refine_ls_R_factor_gt                   ?
_refine_ls_wR_factor_gt                  ?
_pd_proc_ls_proof_R_factor               0.017
_pd_proc_ls_proof_wR_factor              0.025
_refine_ls_R_I_factor                    ?

# End of data set 1522817


