##############################################################################
#                                                                            #
# Fe-Sb-Te         # FeSbTe mon                                    # 1010220 #
#                                                                            #
##############################################################################
#                                                                            #
#                           Pearson's Crystal Data                           #
#      Crystal Structure Database for Inorganic Compounds (on DVD)           #
#                              Release 2017/18                               #
#                  Editors: Pierre Villars and Karin Cenzual                 #
#                                                                            #
#   Copyright (c) ASM International & Material Phases Data System (MPDS),    #
# Switzerland & National Institute for Materials Science (NIMS), Japan, 2017 #
#                   All rights reserved. Version 2017.08                     #
#                                                                            #
#   This copy of Pearson's Crystal Data is licensed to:                      #
#   University of Alberta, Chemistry Department, 1-5 Installations License         #
#                                                                            #
##############################################################################

data_1010220
_audit_creation_date                     2017-12-04
_audit_creation_method
;
Pearson's Crystal Data browser
;
#_database_code_PCD                      1010220

# Entry summary

_chemical_formula_structural             'Fe Sb Te'
_chemical_formula_sum                    'Fe Sb Te'
_chemical_name_mineral                   ?
_chemical_compound_source                ?
_chemical_name_structure_type            FeAsS,mP12,14
_chemical_formula_weight                 305.2

# Bibliographic data

_publ_section_title
'\"Uber einige tern\"are Verbindungen vom Typ des Arsenopyrits'               
_journal_coden_ASTM                      NATWAY
_journal_name_full                       Naturwissenschaften
_journal_year                            1965
_journal_volume                          52
_journal_page_first                      494b
_journal_page_last                       ?
_journal_language                        German
loop_
 _publ_author_name
 _publ_author_address
'Hahn H.'
;
W\"urzburg Julius-Maximilians University
Institut f\"ur Anorganische Chemie
W\"urzburg
Germany
;
'Klingen W.'
;
W\"urzburg Julius-Maximilians University
Institut f\"ur Anorganische Chemie
W\"urzburg
Germany
;

# Standardized crystallographic data

_cell_length_a                           6.56
_cell_length_b                           6.45
_cell_length_c                           6.58
_cell_angle_alpha                        90
_cell_angle_beta                         114.1
_cell_angle_gamma                        90
_cell_volume                             254.1
_cell_formula_units_Z                    4
_space_group_IT_number                   14
_space_group_name_H-M_alt                'P 1 21/c 1'
loop_
 _space_group_symop_id
 _space_group_symop_operation_xyz
 1 'x, y, z'
 2 '-x, -y, -z'
 3 '-x, 1/2+y, 1/2-z'
 4 'x, 1/2-y, 1/2+z'

# Atomic positions taken from type-defining entry

loop_
 _atom_type_symbol
 Te
 Fe
 Sb
loop_
 _atom_site_label
 _atom_site_type_symbol
 _atom_site_symmetry_multiplicity
 _atom_site_Wyckoff_symbol
 _atom_site_fract_x
 _atom_site_fract_y
 _atom_site_fract_z
 _atom_site_occupancy
 Te1 Te 4 e 0.1557 0.3691 0.3281 1
 Fe1 Fe 4 e 0.2273 0.0035 0.2189 1
 Sb1 Sb 4 e 0.3508 0.6286 0.1358 1


_exptl_crystal_colour                    ?
_exptl_crystal_density_meas              7.93
_exptl_crystal_density_diffrn            7.98
_cell_measurement_temperature            ?
_cell_measurement_radiation              X-rays
_cell_measurement_reflns_used            ?
_diffrn_ambient_temperature              ?
_diffrn_measurement_device               ?
_diffrn_measurement_device_type          ?
_diffrn_radiation_type                   ?
_diffrn_reflns_number                    ?
_exptl_absorpt_coefficient_mu            ?
_exptl_absorpt_correction_type           ?
_computing_structure_solution            ?
_refine_ls_number_parameters             ?
_refine_ls_number_reflns                 ?
_refine_ls_R_factor_gt                   ?
_refine_ls_wR_factor_gt                  ?

# End of data set 1010220


