##############################################################################
#                                                                            #
# Cl-Fe-S          # FeSCl7                                        #  543121 #
#                                                                            #
##############################################################################
#                                                                            #
#                           Pearson's Crystal Data                           #
#      Crystal Structure Database for Inorganic Compounds (on DVD)           #
#                              Release 2017/18                               #
#                  Editors: Pierre Villars and Karin Cenzual                 #
#                                                                            #
#   Copyright (c) ASM International & Material Phases Data System (MPDS),    #
# Switzerland & National Institute for Materials Science (NIMS), Japan, 2017 #
#                   All rights reserved. Version 2017.08                     #
#                                                                            #
#   This copy of Pearson's Crystal Data is licensed to:                      #
#   University of Alberta, Chemistry Department, 1-5 Installations License         #
#                                                                            #
##############################################################################

data_543121
_audit_creation_date                     2017-12-04
_audit_creation_method
;
Pearson's Crystal Data browser
;
#_database_code_PCD                      543121

# Entry summary

_chemical_formula_structural             'Fe S Cl~7~'
_chemical_formula_sum                    'Cl7 Fe S'
_chemical_name_mineral                   ?
_chemical_compound_source                ?
_chemical_name_structure_type            FeSCl~7~,mP36,14
_chemical_formula_weight                 336.1

# Bibliographic data

_publ_section_title
;
X-Ray structure analysis of iron(III) complexes containing halogens and chalcogens
;
_journal_coden_ASTM                      RJICAQ
_journal_name_full                       'Russ. J. Inorg. Chem.'
_journal_year                            1991
_journal_volume                          36
_journal_page_first                      1427
_journal_page_last                       1431
_journal_language                        English
loop_
 _publ_author_name
 _publ_author_address
'Rybakov V.B.'
;
Moscow M.V. Lomonosov State University
Moscow
Russia
;
'Ashnov L.A.'
;
Moscow M.V. Lomonosov State University
Moscow
Russia
;
'Volkov S.V.'
;
Moscow M.V. Lomonosov State University
Moscow
Russia
;
'Fokina Z.A.'
;
Ukrainian Academy of Sciences
Vernadskii V.I. Institute of General and Inorganic Chemistry
Kiev
Ukraine
;
'Timoshchenko N.I.'
;
Ukrainian Academy of Sciences
Vernadskii V.I. Institute of General and Inorganic Chemistry
Kiev
Ukraine
;

# Standardized crystallographic data

_cell_length_a                           6.417
_cell_length_b                           12.359
_cell_length_c                           13.356
_cell_angle_alpha                        90
_cell_angle_beta                         101.85
_cell_angle_gamma                        90
_cell_volume                             1036.7
_cell_formula_units_Z                    4
_space_group_IT_number                   14
_space_group_name_H-M_alt                'P 1 21/c 1'
loop_
 _space_group_symop_id
 _space_group_symop_operation_xyz
 1 'x, y, z'
 2 '-x, -y, -z'
 3 '-x, 1/2+y, 1/2-z'
 4 'x, 1/2-y, 1/2+z'
loop_
 _atom_type_symbol
 Cl
 Fe
 S
loop_
 _atom_site_label
 _atom_site_type_symbol
 _atom_site_symmetry_multiplicity
 _atom_site_Wyckoff_symbol
 _atom_site_fract_x
 _atom_site_fract_y
 _atom_site_fract_z
 _atom_site_occupancy
 Cl3 Cl 4 e 0.0024 0.0539 0.1284 1
 Cl1 Cl 4 e 0.1083 0.0776 0.4039 1
 Fe Fe 4 e 0.1109 0.5181 0.2322 1
 Cl2 Cl 4 e 0.1386 0.3422 0.2216 1
 Cl6 Cl 4 e 0.317 0.1661 0.0039 1
 S S 4 e 0.4719 0.2472 0.4186 1
 Cl4 Cl 4 e 0.5768 0.0918 0.2561 1
 Cl5 Cl 4 e 0.6472 0.3469 0.021 1
 Cl7 Cl 4 e 0.6821 0.3518 0.3885 1


_exptl_crystal_colour                    ?
_exptl_crystal_density_meas              ?
_exptl_crystal_density_diffrn            2.15
_cell_measurement_temperature            ?
_cell_measurement_radiation              'X-rays, Mo Ka'
_cell_measurement_reflns_used            ?
_diffrn_ambient_temperature              ?
_diffrn_measurement_device               'automatic diffractometer'
_diffrn_measurement_device_type          'Enraf-Nonius CAD4'
_diffrn_radiation_type                   'X-rays, Mo Ka'
_diffrn_reflns_number                    ?
_exptl_absorpt_coefficient_mu            5.4422
_exptl_absorpt_correction_type           ?
_computing_structure_solution            'Patterson and Fourier synthesis'
_refine_ls_number_parameters             ?
_refine_ls_number_reflns                 1011
_refine_ls_R_factor_gt                   0.042
_refine_ls_wR_factor_gt                  ?

# End of data set 543121


