##############################################################################
#                                                                            #
# Ga-H-O-P         # Ga2[PHO3]3                                    # 1501708 #
#                                                                            #
##############################################################################
#                                                                            #
#                           Pearson's Crystal Data                           #
#      Crystal Structure Database for Inorganic Compounds (on DVD)           #
#                              Release 2017/18                               #
#                  Editors: Pierre Villars and Karin Cenzual                 #
#                                                                            #
#   Copyright (c) ASM International & Material Phases Data System (MPDS),    #
# Switzerland & National Institute for Materials Science (NIMS), Japan, 2017 #
#                   All rights reserved. Version 2017.08                     #
#                                                                            #
#   This copy of Pearson's Crystal Data is licensed to:                      #
#   University of Alberta, Chemistry Department, 1-5 Installations License         #
#                                                                            #
##############################################################################

data_1501708
_audit_creation_date                     2017-12-05
_audit_creation_method
;
Pearson's Crystal Data browser
;
#_database_code_PCD                      1501708

# Entry summary

_chemical_formula_structural             'Ga~2~ [P H O~3~]~3~'
_chemical_formula_sum                    'Ga2 H3 O9 P3'
_chemical_name_mineral                   ?
_chemical_compound_source                ?
_chemical_name_structure_type            Fe~2~[PHO~3~]~3~,hP28,176
_chemical_formula_weight                 379.4

# Bibliographic data

_publ_section_title
;
Synthesis and structures of two isostructural phosphites, Al~2~(HPO~3~)~3~ and Ga~2~(HPO~3~)~3~
;
_journal_coden_ASTM                      ACSCEE
_journal_name_full                       'Acta Crystallogr. C'
_journal_year                            1994
_journal_volume                          50
_journal_page_first                      473
_journal_page_last                       476
_journal_language                        English
loop_
 _publ_author_name
 _publ_author_address
'Morris R.E.'
;
California Santa Barbara University
Department of Materials
Santa Barbara
U.S.A. California
;
'Attfield M.P.'
;
California Santa Barbara University
Department of Materials
Santa Barbara
U.S.A. California
;
'Cheetham A.K.'
;
California Santa Barbara University
Department of Materials
Santa Barbara
U.S.A. California
;

# Standardized crystallographic data

_cell_length_a                           7.9138
_cell_length_b                           7.9138
_cell_length_c                           7.2406
_cell_angle_alpha                        90
_cell_angle_beta                         90
_cell_angle_gamma                        120
_cell_volume                             392.7
_cell_formula_units_Z                    2
_space_group_IT_number                   176
_space_group_name_H-M_alt                'P 63/m'
loop_
 _space_group_symop_id
 _space_group_symop_operation_xyz
 1 'x, y, z'
 2 '-x+y, -x, 1/2-z'
 3 '-x+y, -x, z'
 4 '-x, -y, -z'
 5 '-x, -y, 1/2+z'
 6 '-y, x-y, 1/2-z'
 7 '-y, x-y, z'
 8 'x, y, 1/2-z'
 9 'x-y, x, -z'
 10 'x-y, x, 1/2+z'
 11 'y, -x+y, -z'
 12 'y, -x+y, 1/2+z'
loop_
 _atom_type_symbol
 O
 P
 Ga
 H
loop_
 _atom_site_label
 _atom_site_type_symbol
 _atom_site_symmetry_multiplicity
 _atom_site_Wyckoff_symbol
 _atom_site_fract_x
 _atom_site_fract_y
 _atom_site_fract_z
 _atom_site_occupancy
 O1 O 12 i 0.4285 0.1614 0.0727 1
 O2 O 6 h 0.1327 0.5241 0.25 1
 P1 P 6 h 0.3525 0.045 0.25 1
 Ga1 Ga 4 f 0.333333 0.666667 0.0498 1
 H1 H 6 h 0.009 0.187 0.25 1


_exptl_crystal_colour                    white
_exptl_crystal_density_meas              ?
_exptl_crystal_density_diffrn            3.21
_cell_measurement_temperature            ?
_cell_measurement_radiation              'X-rays, Cu Ka'
_cell_measurement_wavelength             1.54178
_pd_proc_wavelength                      1.54178
_cell_measurement_reflns_used            ?
_diffrn_ambient_temperature              ?
_diffrn_measurement_device               'automatic diffractometer'
_diffrn_measurement_device_type          'Scintag PAD-X'
_diffrn_radiation_type                   'X-rays, Cu Ka'
_diffrn_radiation_wavelength             1.54178
_diffrn_reflns_number                    ?
_diffrn_reflns_theta_min                 7.5
_diffrn_reflns_theta_max                 50
_pd_proc_2theta_range_min                15
_pd_proc_2theta_range_max                100
_exptl_absorpt_coefficient_mu            ?
_exptl_absorpt_correction_type           ?
_computing_structure_solution            'starting values from the literature'
_refine_ls_number_parameters             24
_refine_ls_number_reflns                 ?
_refine_ls_R_factor_gt                   ?
_refine_ls_wR_factor_gt                  ?
_pd_proc_ls_proof_R_factor               0.1119
_pd_proc_ls_proof_wR_factor              0.1409
_refine_ls_R_I_factor                    ?

# End of data set 1501708


