##############################################################################
#                                                                            #
# Ga-S             # Ga2S3 mon                                     #  454867 #
#                                                                            #
##############################################################################
#                                                                            #
#                           Pearson's Crystal Data                           #
#      Crystal Structure Database for Inorganic Compounds (on DVD)           #
#                              Release 2017/18                               #
#                  Editors: Pierre Villars and Karin Cenzual                 #
#                                                                            #
#   Copyright (c) ASM International & Material Phases Data System (MPDS),    #
# Switzerland & National Institute for Materials Science (NIMS), Japan, 2017 #
#                   All rights reserved. Version 2017.08                     #
#                                                                            #
#   This copy of Pearson's Crystal Data is licensed to:                      #
#   University of Alberta, Chemistry Department, 1-5 Installations License         #
#                                                                            #
##############################################################################

data_454867
_audit_creation_date                     2017-12-01
_audit_creation_method
;
Pearson's Crystal Data browser
;
#_database_code_PCD                      454867

# Entry summary

_chemical_formula_structural             'Ga~2~ S~3~'
_chemical_formula_sum                    'Ga2 S3'
_chemical_name_mineral                   ?
_chemical_compound_source                ?
_chemical_name_structure_type            Ga~2~S~3~,mS20,9
_chemical_formula_weight                 235.6

# Bibliographic data

_publ_section_title
'New single-crystalline phases in the system Ga~2~S~3~-In~2~S~3~'             
_journal_coden_ASTM                      JCRGAE
_journal_name_full                       'J. Cryst. Growth'
_journal_year                            1970
_journal_volume                          7
_journal_page_first                      285
_journal_page_last                       289
_journal_language                        English
loop_
 _publ_author_name
 _publ_author_address
'Kr\"amer V.'
;
Freiburg im Breisgau Albert Ludwig University
Institut f\"ur Kristallographie
Freiburg im Breisgau
Germany
;
'Nitsche R.'
;
Freiburg im Breisgau Albert Ludwig University
Institut f\"ur Kristallographie
Freiburg im Breisgau
Germany
;
'Ottemann J.'
;
Freiburg im Breisgau Albert Ludwig University
Institut f\"ur Kristallographie
Freiburg im Breisgau
Germany
;

# Standardized crystallographic data

_cell_length_a                           11.04
_cell_length_b                           6.42
_cell_length_c                           7.02
_cell_angle_alpha                        90
_cell_angle_beta                         121.2
_cell_angle_gamma                        90
_cell_volume                             425.59
_cell_formula_units_Z                    4
_space_group_IT_number                   9
_space_group_name_H-M_alt                'C 1 c 1'
loop_
 _space_group_symop_id
 _space_group_symop_operation_xyz
 1 'x, y, z'
 2 'x, -y, 1/2+z'
 3 '1/2+x, 1/2+y, z'
 4 '1/2+x, 1/2-y, 1/2+z'

# Atomic positions taken from type-defining entry

loop_
 _atom_type_symbol
 Ga
 S
loop_
 _atom_site_label
 _atom_site_type_symbol
 _atom_site_symmetry_multiplicity
 _atom_site_Wyckoff_symbol
 _atom_site_fract_x
 _atom_site_fract_y
 _atom_site_fract_z
 _atom_site_occupancy
 Ga1 Ga 4 a 0.0000 0.0975 0.0000 1
 S1 S 4 a 0.0426 0.4144 0.1405 1
 S2 S 4 a 0.2001 0.0927 0.6249 1
 Ga2 Ga 4 a 0.34177 0.0676 0.0097 1
 S3 S 4 a 0.3637 0.4159 0.1158 1


_exptl_crystal_colour                    white
_exptl_crystal_density_meas              ?
_exptl_crystal_density_diffrn            3.68
_cell_measurement_temperature            ?
_cell_measurement_radiation              X-rays
_cell_measurement_reflns_used            ?
_diffrn_ambient_temperature              ?
_diffrn_measurement_device               film
_diffrn_measurement_device_type          ?
_diffrn_radiation_type                   ?
_diffrn_reflns_number                    ?
_exptl_absorpt_coefficient_mu            ?
_exptl_absorpt_correction_type           ?
_computing_structure_solution            ?
_refine_ls_number_parameters             ?
_refine_ls_number_reflns                 ?
_refine_ls_R_factor_gt                   ?
_refine_ls_wR_factor_gt                  ?

# End of data set 454867


