##############################################################################
#                                                                            #
# Ga-I-O           # Ga[IO3]3                                      #  376237 #
#                                                                            #
##############################################################################
#                                                                            #
#                           Pearson's Crystal Data                           #
#      Crystal Structure Database for Inorganic Compounds (on DVD)           #
#                              Release 2017/18                               #
#                  Editors: Pierre Villars and Karin Cenzual                 #
#                                                                            #
#   Copyright (c) ASM International & Material Phases Data System (MPDS),    #
# Switzerland & National Institute for Materials Science (NIMS), Japan, 2017 #
#                   All rights reserved. Version 2017.08                     #
#                                                                            #
#   This copy of Pearson's Crystal Data is licensed to:                      #
#   University of Alberta, Chemistry Department, 1-5 Installations License         #
#                                                                            #
##############################################################################

data_376237
_audit_creation_date                     2017-12-01
_audit_creation_method
;
Pearson's Crystal Data browser
;
#_database_code_PCD                      376237

# Entry summary

_chemical_formula_structural             'Ga [I O~3~]~3~'
_chemical_formula_sum                    'Ga I3 O9'
_chemical_name_mineral                   ?
_chemical_compound_source                ?
_chemical_name_structure_type            Fe[IO~3~]~3~,hP26,173
_chemical_formula_weight                 594.4

# Bibliographic data

_publ_section_title
'Solubility in the Ga(IO~3~)~3~-LiIO~3~-H~2~O system at 25 \%C'               
_journal_coden_ASTM                      RJICAQ
_journal_name_full                       'Russ. J. Inorg. Chem.'
_journal_year                            1980
_journal_volume                          25
_journal_page_first                      618
_journal_page_last                       620
_journal_language                        English
loop_
 _publ_author_name
 _publ_author_address
'Shklovskaya R.M.'
'Arkhipov S.M.'
'Kidyarov B.I.'
;
Russian Academy of Sciences
Novosibirsk
Russia
;
'Tokareva A.G.'
'Kuzina V.A.'

# Standardized crystallographic data

_cell_length_a                           9.094
_cell_length_b                           9.094
_cell_length_c                           5.292
_cell_angle_alpha                        90
_cell_angle_beta                         90
_cell_angle_gamma                        120
_cell_volume                             379
_cell_formula_units_Z                    2
_space_group_IT_number                   173
_space_group_name_H-M_alt                'P 63'
loop_
 _space_group_symop_id
 _space_group_symop_operation_xyz
 1 'x, y, z'
 2 '-x+y, -x, z'
 3 '-x, -y, 1/2+z'
 4 '-y, x-y, z'
 5 'x-y, x, 1/2+z'
 6 'y, -x+y, 1/2+z'

# Atomic positions taken from type-defining entry

loop_
 _atom_type_symbol
 I
 O
 Ga
loop_
 _atom_site_label
 _atom_site_type_symbol
 _atom_site_symmetry_multiplicity
 _atom_site_Wyckoff_symbol
 _atom_site_fract_x
 _atom_site_fract_y
 _atom_site_fract_z
 _atom_site_occupancy
 I1 I 6 c 0.0221 0.3349 0.3613 1
 O1 O 6 c 0.0435 0.2195 0.1027 1
 O2 O 6 c 0.1266 0.5481 0.2057 1
 O3 O 6 c 0.4811 0.1967 0.2607 1
 Ga1 Ga 2 b 0.333333 0.666667 0.0 1


_exptl_crystal_colour                    white
_exptl_crystal_density_meas              4.96
_exptl_crystal_density_diffrn            5.21
_cell_measurement_temperature            ?
_cell_measurement_radiation              'X-rays, Cu Ka'
_cell_measurement_reflns_used            ?
_diffrn_ambient_temperature              ?
_diffrn_measurement_device               film
_diffrn_measurement_device_type          ?
_diffrn_radiation_type                   ?
_diffrn_reflns_number                    ?
_exptl_absorpt_coefficient_mu            ?
_exptl_absorpt_correction_type           ?
_computing_structure_solution            ?
_refine_ls_number_parameters             ?
_refine_ls_number_reflns                 ?
_refine_ls_R_factor_gt                   ?
_refine_ls_wR_factor_gt                  ?

# Published diffraction lines

loop_
 _refln_index_h
 _refln_index_k
 _refln_index_l
 _refln_d_spacing
 _refln_intensity_meas
 1 1 0 45.2 15
 1 0 1 43.9 10
 2 0 0 39.34 3
 1 1 1 34.58 100
 2 0 1 31.53 10
 2 1 0 29.78 5
 3 0 0 26.29 40
 3 0 1 23.54 5
 1 1 2 22.81 15
 3 1 0 21.83 5
 2 2 1 20.89 25
 3 1 1 20.19 3
 2 1 2 19.77 1
 3 0 2 18.65 25
 3 2 0 18.07 1
 2 2 2 17.23 5
 3 2 1 17.1 5
 3 1 2 16.85 1
 1 1 3 16.44 10
 4 1 1 16.36 25
 3 3 0 15.16 10
 4 2 0 14.88 20
 4 1 2 14.41 5
 3 1 3 13.72 2
 4 0 3 13.15 5
 4 2 2 12.98 3
 1 1 4 12.7 3
 4 3 1 12.58 3
 5 2 1 12.27 3
 5 0 3 11.75 2
 6 2 1 10.7 2
 4 4 2 10.44 3

# End of data set 376237


