##############################################################################
#                                                                            #
# Ga-In-S          # GaInS3 hex1                                   #  461425 #
#                                                                            #
##############################################################################
#                                                                            #
#                           Pearson's Crystal Data                           #
#      Crystal Structure Database for Inorganic Compounds (on DVD)           #
#                              Release 2017/18                               #
#                  Editors: Pierre Villars and Karin Cenzual                 #
#                                                                            #
#   Copyright (c) ASM International & Material Phases Data System (MPDS),    #
# Switzerland & National Institute for Materials Science (NIMS), Japan, 2017 #
#                   All rights reserved. Version 2017.08                     #
#                                                                            #
#   This copy of Pearson's Crystal Data is licensed to:                      #
#   University of Alberta, Chemistry Department, 1-5 Installations License         #
#                                                                            #
##############################################################################

data_461425
_audit_creation_date                     2017-12-01
_audit_creation_method
;
Pearson's Crystal Data browser
;
#_database_code_PCD                      461425

# Entry summary

_chemical_formula_structural             'Ga In S~3~'
_chemical_formula_sum                    'Ga In S3'
_chemical_name_mineral                   ?
_chemical_compound_source                ?
_chemical_name_structure_type            AlInS~3~,hP30,169
_chemical_formula_weight                 280.7

# Bibliographic data

_publ_section_title
'Crystal structures of GaInS~3~ and GaInSe~3~'                                
_journal_coden_ASTM                      INOMAF
_journal_name_full                       'Inorg. Mater.'
_journal_year                            1987
_journal_volume                          23
_journal_page_first                      766
_journal_page_last                       768
_journal_language                        English
loop_
 _publ_author_name
 _publ_author_address
'Guseinov G.G.'
;
Azerbaijan Academy of Sciences
Institute of Physics
Baku
Azerbaijan
;
'Amiraslanov I.R.'
;
Azerbaijan Academy of Sciences
Institute of Physics
Baku
Azerbaijan
;
'Kuliev A.S.'
;
Azerbaijan Academy of Sciences
Institute of Physics
Baku
Azerbaijan
;
'Mamedov K.S.'
;
Azerbaijan Academy of Sciences
Institute of Physics
Baku
Azerbaijan
;

# Standardized crystallographic data

_cell_length_a                           6.653
_cell_length_b                           6.653
_cell_length_c                           17.921
_cell_angle_alpha                        90
_cell_angle_beta                         90
_cell_angle_gamma                        120
_cell_volume                             686.95
_cell_formula_units_Z                    6
_space_group_IT_number                   169
_space_group_name_H-M_alt                'P 61'
loop_
 _space_group_symop_id
 _space_group_symop_operation_xyz
 1 'x, y, z'
 2 '-x+y, -x, -1/3+z'
 3 '-x, -y, 1/2+z'
 4 '-y, x-y, 1/3+z'
 5 'x-y, x, 1/6+z'
 6 'y, -x+y, -1/6+z'
loop_
 _atom_type_symbol
 In
 S
 Ga
loop_
 _atom_site_label
 _atom_site_type_symbol
 _atom_site_symmetry_multiplicity
 _atom_site_Wyckoff_symbol
 _atom_site_fract_x
 _atom_site_fract_y
 _atom_site_fract_z
 _atom_site_occupancy
 In In 6 a -0.006 0.329 0.0 1
 S1 S 6 a 0.015 0.312 0.123 1
 S3 S 6 a 0.308 0.023 0.156 1
 Ga Ga 6 a 0.338 0.339 0.47233 1
 S2 S 6 a 0.375 0.035 0.524 1


_exptl_crystal_colour                    yellow
_exptl_crystal_density_meas              ?
_exptl_crystal_density_diffrn            4.07
_cell_measurement_temperature            ?
_cell_measurement_radiation              'X-rays, Mo Ka'
_cell_measurement_reflns_used            ?
_diffrn_ambient_temperature              ?
_diffrn_measurement_device               'automatic diffractometer'
_diffrn_measurement_device_type          'Syntex P21'
_diffrn_radiation_type                   'X-rays, Mo Ka'
_diffrn_reflns_number                    ?
_exptl_absorpt_coefficient_mu            ?
_exptl_absorpt_correction_type           ?
_computing_structure_solution            'Patterson and Fourier synthesis'
_refine_ls_number_parameters             ?
_refine_ls_number_reflns                 ?
_refine_ls_R_factor_gt                   0.081
_refine_ls_wR_factor_gt                  ?

# End of data set 461425


