##############################################################################
#                                                                            #
# Ga-N             # GaN                                           #  554661 #
#                                                                            #
##############################################################################
#                                                                            #
#                           Pearson's Crystal Data                           #
#      Crystal Structure Database for Inorganic Compounds (on DVD)           #
#                              Release 2017/18                               #
#                  Editors: Pierre Villars and Karin Cenzual                 #
#                                                                            #
#   Copyright (c) ASM International & Material Phases Data System (MPDS),    #
# Switzerland & National Institute for Materials Science (NIMS), Japan, 2017 #
#                   All rights reserved. Version 2017.08                     #
#                                                                            #
#   This copy of Pearson's Crystal Data is licensed to:                      #
#   University of Alberta, Chemistry Department, 1-5 Installations License         #
#                                                                            #
##############################################################################

data_554661
_audit_creation_date                     2017-12-04
_audit_creation_method
;
Pearson's Crystal Data browser
;
#_database_code_PCD                      554661

# Entry summary

_chemical_formula_structural             'Ga N'
_chemical_formula_sum                    'Ga N'
_chemical_name_mineral                   ?
_chemical_compound_source                ?
_chemical_name_structure_type            ZnO,hP4,186
_chemical_formula_weight                 83.7

# Bibliographic data

_publ_section_title
'Thermal expansion of gallium nitride'                                        
_journal_coden_ASTM                      JAPIAU
_journal_name_full                       'J. Appl. Phys.'
_journal_year                            1994
_journal_volume                          76
_journal_page_first                      4909
_journal_page_last                       4911
_journal_language                        English
loop_
 _publ_author_name
 _publ_author_address
'Leszczynski M.'
;
Polish Academy of Sciences
High-Pressure Research Center
Warsaw
Poland
;
'Suski T.'
;
Polish Academy of Sciences
High-Pressure Research Center
Warsaw
Poland
;
'Teisseyre H.'
;
Polish Academy of Sciences
High-Pressure Research Center
Warsaw
Poland
;
'Perlin P.'
;
Polish Academy of Sciences
High-Pressure Research Center
Warsaw
Poland
;
'Grzegory I.'
;
Polish Academy of Sciences
High-Pressure Research Center
Warsaw
Poland
;
'Jun J.'
;
Polish Academy of Sciences
High-Pressure Research Center
Warsaw
Poland
;
'Porowski S.'
;
Polish Academy of Sciences
High-Pressure Research Center
Warsaw
Poland
;
'Moustakas T.D.'
;
Massachusetts Boston University
Molecular Beam Epitaxy
Boston
U.S.A. Massachusetts
;

# Standardized crystallographic data

_cell_length_a                           3.1871
_cell_length_b                           3.1871
_cell_length_c                           5.1857
_cell_angle_alpha                        90
_cell_angle_beta                         90
_cell_angle_gamma                        120
_cell_volume                             45.6
_cell_formula_units_Z                    2
_space_group_IT_number                   186
_space_group_name_H-M_alt                'P 63 m c'
loop_
 _space_group_symop_id
 _space_group_symop_operation_xyz
 1 'x, y, z'
 2 '-x+y, -x, z'
 3 '-x+y, y, z'
 4 '-x, -x+y, 1/2+z'
 5 '-x, -y, 1/2+z'
 6 '-y, -x, z'
 7 '-y, x-y, z'
 8 'x, x-y, z'
 9 'x-y, -y, 1/2+z'
 10 'x-y, x, 1/2+z'
 11 'y, -x+y, 1/2+z'
 12 'y, x, 1/2+z'

# Atomic positions taken from type-defining entry

loop_
 _atom_type_symbol
 N
 Ga
loop_
 _atom_site_label
 _atom_site_type_symbol
 _atom_site_symmetry_multiplicity
 _atom_site_Wyckoff_symbol
 _atom_site_fract_x
 _atom_site_fract_y
 _atom_site_fract_z
 _atom_site_occupancy
 N1 N 2 b 0.333333 0.666667 0.0 1
 Ga1 Ga 2 b 0.333333 0.666667 0.381 1


_exptl_crystal_colour                    ?
_exptl_crystal_density_meas              ?
_exptl_crystal_density_diffrn            6.10
_cell_measurement_temperature            294
_cell_measurement_radiation              'X-rays, Cu Ka1'
_cell_measurement_reflns_used            ?
_diffrn_ambient_temperature              ?
_diffrn_measurement_device               film
_diffrn_measurement_device_type          ?
_diffrn_radiation_type                   ?
_diffrn_reflns_number                    ?
_exptl_absorpt_coefficient_mu            ?
_exptl_absorpt_correction_type           ?
_computing_structure_solution            ?
_refine_ls_number_parameters             ?
_refine_ls_number_reflns                 ?
_refine_ls_R_factor_gt                   ?
_refine_ls_wR_factor_gt                  ?

# End of data set 554661


