##############################################################################
#                                                                            #
# Ga-N             # GaN                                           #  313695 #
#                                                                            #
##############################################################################
#                                                                            #
#                           Pearson's Crystal Data                           #
#      Crystal Structure Database for Inorganic Compounds (on DVD)           #
#                              Release 2017/18                               #
#                  Editors: Pierre Villars and Karin Cenzual                 #
#                                                                            #
#   Copyright (c) ASM International & Material Phases Data System (MPDS),    #
# Switzerland & National Institute for Materials Science (NIMS), Japan, 2017 #
#                   All rights reserved. Version 2017.08                     #
#                                                                            #
#   This copy of Pearson's Crystal Data is licensed to:                      #
#   University of Alberta, Chemistry Department, 1-5 Installations License         #
#                                                                            #
##############################################################################

data_313695
_audit_creation_date                     2017-12-01
_audit_creation_method
;
Pearson's Crystal Data browser
;
#_database_code_PCD                      313695

# Entry summary

_chemical_formula_structural             'Ga N'
_chemical_formula_sum                    'Ga N'
_chemical_name_mineral                   ?
_chemical_compound_source                ?
_chemical_name_structure_type            ZnO,hP4,186
_chemical_formula_weight                 83.7

# Bibliographic data

_publ_section_title
;
Synthesis routes and characterization of high-purity, single-phase gallium nitride powders
;
_journal_coden_ASTM                      JACTAW
_journal_name_full                       'J. Am. Ceram. Soc.'
_journal_year                            1996
_journal_volume                          79
_journal_page_first                      2309
_journal_page_last                       2312
_journal_language                        English
loop_
 _publ_author_name
 _publ_author_address
'Balkas C.M.'
;
North Carolina Raleigh University
Department of Materials Science and Engineering
Raleigh
U.S.A. North Carolina
;
'Davis R.E.'
;
North Carolina Raleigh University
Department of Materials Science and Engineering
Raleigh
U.S.A. North Carolina
;

# Standardized crystallographic data

_cell_length_a                           3.1891
_cell_length_b                           3.1891
_cell_length_c                           5.1855
_cell_angle_alpha                        90
_cell_angle_beta                         90
_cell_angle_gamma                        120
_cell_volume                             45.7
_cell_formula_units_Z                    2
_space_group_IT_number                   186
_space_group_name_H-M_alt                'P 63 m c'
loop_
 _space_group_symop_id
 _space_group_symop_operation_xyz
 1 'x, y, z'
 2 '-x+y, -x, z'
 3 '-x+y, y, z'
 4 '-x, -x+y, 1/2+z'
 5 '-x, -y, 1/2+z'
 6 '-y, -x, z'
 7 '-y, x-y, z'
 8 'x, x-y, z'
 9 'x-y, -y, 1/2+z'
 10 'x-y, x, 1/2+z'
 11 'y, -x+y, 1/2+z'
 12 'y, x, 1/2+z'

# Atomic positions taken from type-defining entry

loop_
 _atom_type_symbol
 N
 Ga
loop_
 _atom_site_label
 _atom_site_type_symbol
 _atom_site_symmetry_multiplicity
 _atom_site_Wyckoff_symbol
 _atom_site_fract_x
 _atom_site_fract_y
 _atom_site_fract_z
 _atom_site_occupancy
 N1 N 2 b 0.333333 0.666667 0.0 1
 Ga1 Ga 2 b 0.333333 0.666667 0.381 1


_exptl_crystal_colour                    ?
_exptl_crystal_density_meas              ?
_exptl_crystal_density_diffrn            6.09
_cell_measurement_temperature            ?
_cell_measurement_radiation              'X-rays, Cu Ka'
_cell_measurement_reflns_used            ?
_diffrn_ambient_temperature              ?
_diffrn_measurement_device               'automatic diffractometer'
_diffrn_measurement_device_type          ?
_diffrn_radiation_type                   ?
_diffrn_reflns_number                    ?
_exptl_absorpt_coefficient_mu            ?
_exptl_absorpt_correction_type           ?
_computing_structure_solution            ?
_refine_ls_number_parameters             ?
_refine_ls_number_reflns                 ?
_refine_ls_R_factor_gt                   ?
_refine_ls_wR_factor_gt                  ?

# Published diffraction lines

loop_
 _refln_index_h
 _refln_index_k
 _refln_index_l
 _refln_d_spacing
 _refln_intensity_meas
 1 0 0 27.62 56
 0 0 2 25.93 45
 1 0 1 24.37 100
 1 0 2 18.91 19
 1 1 0 15.945 31
 1 0 3 14.649 27
 2 0 0 13.809 4
 1 1 2 13.582 22
 2 0 1 13.345 12
 0 0 4 12.964 3
 2 0 2 12.186 3
 1 0 4 11.737 2
 2 0 3 10.79 7
 2 1 0 10.438 3
 2 1 1 10.234 8
 1 1 4 10.059 5
 1 0 5 9.709 6
 2 1 2 9.683 5
 2 0 4 9.452 1
 3 0 0 9.207 4
 2 1 3 8.936 8
 3 0 2 8.676 4
 0 0 6 8.644 2

# End of data set 313695


