##############################################################################
#                                                                            #
# Ga-O-P           # GaP3O9 mon2                                   #  553195 #
#                                                                            #
##############################################################################
#                                                                            #
#                           Pearson's Crystal Data                           #
#      Crystal Structure Database for Inorganic Compounds (on DVD)           #
#                              Release 2017/18                               #
#                  Editors: Pierre Villars and Karin Cenzual                 #
#                                                                            #
#   Copyright (c) ASM International & Material Phases Data System (MPDS),    #
# Switzerland & National Institute for Materials Science (NIMS), Japan, 2017 #
#                   All rights reserved. Version 2017.08                     #
#                                                                            #
#   This copy of Pearson's Crystal Data is licensed to:                      #
#   University of Alberta, Chemistry Department, 1-5 Installations License         #
#                                                                            #
##############################################################################

data_553195
_audit_creation_date                     2017-12-04
_audit_creation_method
;
Pearson's Crystal Data browser
;
#_database_code_PCD                      553195

# Entry summary

_chemical_formula_structural             'Ga P~3~ O~9~'
_chemical_formula_sum                    'Ga O9 P3'
_chemical_name_mineral                   ?
_chemical_compound_source                ?
_chemical_name_structure_type            CrP~3~O~9~,mP52,14
_chemical_formula_weight                 306.6

# Bibliographic data

_publ_section_title
'Double phosphates ammonium and gallium'                                      
_journal_coden_ASTM                      INOMAF
_journal_name_full                       'Inorg. Mater.'
_journal_year                            1987
_journal_volume                          23
_journal_page_first                      544
_journal_page_last                       549
_journal_language                        English
loop_
 _publ_author_name
 _publ_author_address
'Chudinova N.N.'
;
Russian Academy of Sciences
Kurnakov N.S. Institute of General and Inorganic Chemistry
Moscow
Russia
;
'Grunze I.'
;
Russian Academy of Sciences
Kurnakov N.S. Institute of General and Inorganic Chemistry
Moscow
Russia
;
'Guzeeva L.S.'
;
Russian Academy of Sciences
Kurnakov N.S. Institute of General and Inorganic Chemistry
Moscow
Russia
;

# Standardized crystallographic data

_cell_length_a                           6.188
_cell_length_b                           15.196
_cell_length_c                           8.293
_cell_angle_alpha                        90
_cell_angle_beta                         105.89
_cell_angle_gamma                        90
_cell_volume                             750
_cell_formula_units_Z                    4
_space_group_IT_number                   14
_space_group_name_H-M_alt                'P 1 21/c 1'
loop_
 _space_group_symop_id
 _space_group_symop_operation_xyz
 1 'x, y, z'
 2 '-x, -y, -z'
 3 '-x, 1/2+y, 1/2-z'
 4 'x, 1/2-y, 1/2+z'

# Atomic positions taken from type-defining entry

loop_
 _atom_type_symbol
 O
 Ga
 P
loop_
 _atom_site_label
 _atom_site_type_symbol
 _atom_site_symmetry_multiplicity
 _atom_site_Wyckoff_symbol
 _atom_site_fract_x
 _atom_site_fract_y
 _atom_site_fract_z
 _atom_site_occupancy
 O1 O 4 e 0.0519 0.0104 0.338 1
 O2 O 4 e 0.0665 0.1533 0.1332 1
 Ga1 Ga 4 e 0.1189 0.1371 0.3764 1
 P1 P 4 e 0.1501 0.4557 0.2213 1
 O3 O 4 e 0.1623 0.4255 0.4055 1
 O4 O 4 e 0.1739 0.3787 0.1204 1
 O5 O 4 e 0.183 0.2623 0.4069 1
 O6 O 4 e 0.197 0.6599 0.1453 1
 P2 P 4 e 0.2065 0.1611 0.0162 1
 O7 O 4 e 0.434 0.1125 0.3994 1
 O8 O 4 e 0.4648 0.1519 0.1129 1
 P3 P 4 e 0.5885 0.1128 0.2918 1
 O9 O 4 e 0.6309 0.0143 0.2465 1


_exptl_crystal_colour                    ?
_exptl_crystal_density_meas              ?
_exptl_crystal_density_diffrn            2.72
_cell_measurement_temperature            ?
_cell_measurement_radiation              'X-rays, Cu Ka'
_cell_measurement_reflns_used            ?
_diffrn_ambient_temperature              ?
_diffrn_measurement_device               'Guinier film'
_diffrn_measurement_device_type          ?
_diffrn_radiation_type                   ?
_diffrn_reflns_number                    ?
_exptl_absorpt_coefficient_mu            ?
_exptl_absorpt_correction_type           ?
_computing_structure_solution            ?
_refine_ls_number_parameters             ?
_refine_ls_number_reflns                 ?
_refine_ls_R_factor_gt                   ?
_refine_ls_wR_factor_gt                  ?

# Published diffraction lines

loop_
 _refln_index_h
 _refln_index_k
 _refln_index_l
 _refln_d_spacing
 _refln_intensity_meas
 0 2 0 75.9 2
 1 1 0 70.6 4
 0 0 1 59.5 4
 0 1 1 55.4 10
 1 2 0 55 10
 1 1 -1 52.1 4
 1 2 -1 44.8 2
 1 1 1 40.8 2
 2 0 0 39.86 2
 2 1 0 38.55 5
 2 0 -1 38.33 2
 0 4 0 38 5
 1 3 -1 37.36 2
 1 2 1 37.14 4
 2 2 0 35.3 3
 2 2 -1 34.28 3
 2 3 0 31.34 2

# End of data set 553195


