##############################################################################
#                                                                            #
# Ga-P-S           # GaPS4                                         # 1000240 #
#                                                                            #
##############################################################################
#                                                                            #
#                           Pearson's Crystal Data                           #
#      Crystal Structure Database for Inorganic Compounds (on DVD)           #
#                              Release 2017/18                               #
#                  Editors: Pierre Villars and Karin Cenzual                 #
#                                                                            #
#   Copyright (c) ASM International & Material Phases Data System (MPDS),    #
# Switzerland & National Institute for Materials Science (NIMS), Japan, 2017 #
#                   All rights reserved. Version 2017.08                     #
#                                                                            #
#   This copy of Pearson's Crystal Data is licensed to:                      #
#   University of Alberta, Chemistry Department, 1-5 Installations License         #
#                                                                            #
##############################################################################

data_1000240
_audit_creation_date                     2017-12-04
_audit_creation_method
;
Pearson's Crystal Data browser
;
#_database_code_PCD                      1000240

# Entry summary

_chemical_formula_structural             'Ga P S~4~'
_chemical_formula_sum                    'Ga P S4'
_chemical_name_mineral                   ?
_chemical_compound_source                ?
_chemical_name_structure_type            GaPS~4~,mP24,14
_chemical_formula_weight                 228.9

# Bibliographic data

_publ_section_title
'The crystal structure of gallium thiophosphate, GaPS~4~'                     
_journal_coden_ASTM                      ACBCAR
_journal_name_full                       'Acta Crystallogr. B'
_journal_year                            1973
_journal_volume                          29
_journal_page_first                      1864
_journal_page_last                       1868
_journal_language                        English
loop_
 _publ_author_name
 _publ_author_address
'Buck P.'
;
Freiburg im Breisgau Albert Ludwig University
Institut f\"ur Kristallographie
Freiburg im Breisgau
Germany
;
'Carpentier C.D.'
;
Freiburg im Breisgau Albert Ludwig University
Institut f\"ur Kristallographie
Freiburg im Breisgau
Germany
;

# Standardized crystallographic data

_cell_length_a                           8.3187
_cell_length_b                           7.778
_cell_length_c                           11.858
_cell_angle_alpha                        90
_cell_angle_beta                         133.499
_cell_angle_gamma                        90
_cell_volume                             556.5
_cell_formula_units_Z                    4
_space_group_IT_number                   14
_space_group_name_H-M_alt                'P 1 21/c 1'
loop_
 _space_group_symop_id
 _space_group_symop_operation_xyz
 1 'x, y, z'
 2 '-x, -y, -z'
 3 '-x, 1/2+y, 1/2-z'
 4 'x, 1/2-y, 1/2+z'
loop_
 _atom_type_symbol
 Ga
 P
 S
loop_
 _atom_site_label
 _atom_site_type_symbol
 _atom_site_symmetry_multiplicity
 _atom_site_Wyckoff_symbol
 _atom_site_fract_x
 _atom_site_fract_y
 _atom_site_fract_z
 _atom_site_occupancy
 Ga Ga 4 e 0.124 0.0369 0.3886 1
 P P 4 e 0.1414 0.259 0.1517 1
 S4 S 4 e 0.2484 0.2268 0.0406 1
 S2 S 4 e 0.2484 0.4795 0.2781 1
 S1 S 4 e 0.2759 0.0401 0.2862 1
 S3 S 4 e 0.8024 0.2683 0.0072 1


_exptl_crystal_colour                    ?
_exptl_crystal_density_meas              2.65
_exptl_crystal_density_diffrn            2.73
_cell_measurement_temperature            ?
_cell_measurement_radiation              X-rays
_cell_measurement_reflns_used            ?
_diffrn_ambient_temperature              ?
_diffrn_measurement_device               'Weissenberg photographs'
_diffrn_measurement_device_type          ?
_diffrn_radiation_type                   'X-rays, Cu Ka'
_diffrn_reflns_number                    ?
_exptl_absorpt_coefficient_mu            ?
_exptl_absorpt_correction_type           spherical
_computing_structure_solution            'Patterson synthesis'
_refine_ls_number_parameters             ?
_refine_ls_number_reflns                 ?
_refine_ls_R_factor_gt                   0.066
_refine_ls_wR_factor_gt                  ?

# End of data set 1000240


