##############################################################################
#                                                                            #
# Ga-S             # GaS hp                                        #  457099 #
#                                                                            #
##############################################################################
#                                                                            #
#                           Pearson's Crystal Data                           #
#      Crystal Structure Database for Inorganic Compounds (on DVD)           #
#                              Release 2017/18                               #
#                  Editors: Pierre Villars and Karin Cenzual                 #
#                                                                            #
#   Copyright (c) ASM International & Material Phases Data System (MPDS),    #
# Switzerland & National Institute for Materials Science (NIMS), Japan, 2017 #
#                   All rights reserved. Version 2017.08                     #
#                                                                            #
#   This copy of Pearson's Crystal Data is licensed to:                      #
#   University of Alberta, Chemistry Department, 1-5 Installations License         #
#                                                                            #
##############################################################################

data_457099
_audit_creation_date                     2017-12-01
_audit_creation_method
;
Pearson's Crystal Data browser
;
#_database_code_PCD                      457099

# Entry summary

_chemical_formula_structural             'Ga S'
_chemical_formula_sum                    'Ga S'
_chemical_name_mineral                   ?
_chemical_compound_source                ?
_chemical_name_structure_type            GaS-b,hP8,194
_chemical_formula_weight                 101.8

# Bibliographic data

_publ_section_title
'Crystal structure of a new high pressure polymorph of GaS'                   
_journal_coden_ASTM                      SSCOA4
_journal_name_full                       'Solid State Commun.'
_journal_year                            1982
_journal_volume                          44
_journal_page_first                      853
_journal_page_last                       855
_journal_language                        English
loop_
 _publ_author_name
 _publ_author_address
'D'Amour H.'
;
Paderborn GH University
Paderborn
Germany
;
'Holzapfel W.B.'
;
Paderborn GH University
Paderborn
Germany
;
'Polian A.'
;
Paris VI Pierre et Marie Curie University
Laboratoire de Physique des Hautes Densit\'es
Paris
France
;
'Chevy A.'
;
Paris VI Pierre et Marie Curie University
Laboratoire de Physique des Hautes Densit\'es
Paris
France
;

# Standardized crystallographic data

_cell_length_a                           3.504
_cell_length_b                           3.504
_cell_length_c                           14.29
_cell_angle_alpha                        90
_cell_angle_beta                         90
_cell_angle_gamma                        120
_cell_volume                             151.95
_cell_formula_units_Z                    4
_space_group_IT_number                   194
_space_group_name_H-M_alt                'P 63/m m c'
loop_
 _space_group_symop_id
 _space_group_symop_operation_xyz
 1 'x, y, z'
 2 '-x+y, -x, 1/2-z'
 3 '-x+y, -x, z'
 4 '-x+y, y, 1/2-z'
 5 '-x+y, y, z'
 6 '-x, -x+y, -z'
 7 '-x, -x+y, 1/2+z'
 8 '-x, -y, -z'
 9 '-x, -y, 1/2+z'
 10 '-y, -x, 1/2-z'
 11 '-y, -x, z'
 12 '-y, x-y, 1/2-z'
 13 '-y, x-y, z'
 14 'x, x-y, 1/2-z'
 15 'x, x-y, z'
 16 'x, y, 1/2-z'
 17 'x-y, -y, -z'
 18 'x-y, -y, 1/2+z'
 19 'x-y, x, -z'
 20 'x-y, x, 1/2+z'
 21 'y, -x+y, -z'
 22 'y, -x+y, 1/2+z'
 23 'y, x, -z'
 24 'y, x, 1/2+z'
loop_
 _atom_type_symbol
 S
 Ga
loop_
 _atom_site_label
 _atom_site_type_symbol
 _atom_site_symmetry_multiplicity
 _atom_site_Wyckoff_symbol
 _atom_site_fract_x
 _atom_site_fract_y
 _atom_site_fract_z
 _atom_site_occupancy
 S S 4 f 0.333333 0.666667 0.0921 1
 Ga Ga 4 e 0 0 0.1661 1


_exptl_crystal_colour                    ?
_exptl_crystal_density_meas              ?
_exptl_crystal_density_diffrn            4.45
_cell_measurement_temperature            ?
_cell_measurement_pressure               5.8e+006
_cell_measurement_radiation              'X-rays, Mo Ka'
_cell_measurement_reflns_used            ?
_diffrn_ambient_pressure                 5.8e+006
_diffrn_ambient_temperature              ?
_diffrn_measurement_device               'automatic diffractometer'
_diffrn_measurement_device_type          'Syntex R3'
_diffrn_radiation_type                   'X-rays, Mo Ka'
_diffrn_reflns_number                    480
_exptl_absorpt_coefficient_mu            ?
_exptl_absorpt_correction_type           ?
_computing_structure_solution            'starting values from the literature'
_refine_ls_number_parameters             ?
_refine_ls_number_reflns                 ?
_refine_ls_R_factor_gt                   0.092
_refine_ls_wR_factor_gt                  ?

# End of data set 457099


