##############################################################################
#                                                                            #
# Ga-Se            # GaSe 2Ha                                      #  557890 #
#                                                                            #
##############################################################################
#                                                                            #
#                           Pearson's Crystal Data                           #
#      Crystal Structure Database for Inorganic Compounds (on DVD)           #
#                              Release 2017/18                               #
#                  Editors: Pierre Villars and Karin Cenzual                 #
#                                                                            #
#   Copyright (c) ASM International & Material Phases Data System (MPDS),    #
# Switzerland & National Institute for Materials Science (NIMS), Japan, 2017 #
#                   All rights reserved. Version 2017.08                     #
#                                                                            #
#   This copy of Pearson's Crystal Data is licensed to:                      #
#   University of Alberta, Chemistry Department, 1-5 Installations License         #
#                                                                            #
##############################################################################

data_557890
_audit_creation_date                     2017-12-04
_audit_creation_method
;
Pearson's Crystal Data browser
;
#_database_code_PCD                      557890

# Entry summary

_chemical_formula_structural             'Ga Se'
_chemical_formula_sum                    'Ga Se'
_chemical_name_mineral                   ?
_chemical_compound_source                ?
_chemical_name_structure_type            GaSe,hP8,187
_chemical_formula_weight                 148.7

# Bibliographic data

_publ_section_title
;
Polytype Dependence of Intralayer Bond Length in GaSe~1-x~S~x~ Mixed Crystals (0.3 <= x <= 0.4)
;
_journal_coden_ASTM                      JUPSAU
_journal_name_full                       'J. Phys. Soc. Jpn.'
_journal_year                            1981
_journal_volume                          50
_journal_page_first                      355
_journal_page_last                       356
_journal_language                        English
loop_
 _publ_author_name
 _publ_author_address
'Sasaki Y.'
;
California Irvine University
Department of Physics
Irvine
U.S.A. California
;
'Nishina Y.'
;
Sendai Miyagi Tohoku University
Research Institute of Iron, Steel and Other Metals
Sendai / Miyagi
Japan
;

# Standardized crystallographic data

_cell_length_a                           3.755
_cell_length_b                           3.755
_cell_length_c                           15.96
_cell_angle_alpha                        90
_cell_angle_beta                         90
_cell_angle_gamma                        120
_cell_volume                             194.9
_cell_formula_units_Z                    4
_space_group_IT_number                   187
_space_group_name_H-M_alt                'P -6 m 2'
loop_
 _space_group_symop_id
 _space_group_symop_operation_xyz
 1 'x, y, z'
 2 '-x+y, -x, -z'
 3 '-x+y, -x, z'
 4 '-x+y, y, -z'
 5 '-x+y, y, z'
 6 '-y, -x, -z'
 7 '-y, -x, z'
 8 '-y, x-y, -z'
 9 '-y, x-y, z'
 10 'x, x-y, -z'
 11 'x, x-y, z'
 12 'x, y, -z'

# Atomic positions taken from type-defining entry

loop_
 _atom_type_symbol
 Se
 Ga
loop_
 _atom_site_label
 _atom_site_type_symbol
 _atom_site_symmetry_multiplicity
 _atom_site_Wyckoff_symbol
 _atom_site_fract_x
 _atom_site_fract_y
 _atom_site_fract_z
 _atom_site_occupancy
 Se1 Se 2 i 0.666667 0.333333 0.150 1
 Ga1 Ga 2 h 0.333333 0.666667 0.425 1
 Ga2 Ga 2 g 0 0 0.075 1
 Se2 Se 2 g 0 0 0.350 1


_exptl_crystal_colour                    ?
_exptl_crystal_density_meas              ?
_exptl_crystal_density_diffrn            5.07
_cell_measurement_temperature            ?
_cell_measurement_radiation              X-rays
_cell_measurement_reflns_used            ?
_diffrn_ambient_temperature              ?
_diffrn_measurement_device               film
_diffrn_measurement_device_type          ?
_diffrn_radiation_type                   ?
_diffrn_reflns_number                    ?
_exptl_absorpt_coefficient_mu            ?
_exptl_absorpt_correction_type           ?
_computing_structure_solution            ?
_refine_ls_number_parameters             ?
_refine_ls_number_reflns                 ?
_refine_ls_R_factor_gt                   ?
_refine_ls_wR_factor_gt                  ?

# End of data set 557890


