##############################################################################
#                                                                            #
# Ga-Te            # GaTe                                          #  546186 #
#                                                                            #
##############################################################################
#                                                                            #
#                           Pearson's Crystal Data                           #
#      Crystal Structure Database for Inorganic Compounds (on DVD)           #
#                              Release 2017/18                               #
#                  Editors: Pierre Villars and Karin Cenzual                 #
#                                                                            #
#   Copyright (c) ASM International & Material Phases Data System (MPDS),    #
# Switzerland & National Institute for Materials Science (NIMS), Japan, 2017 #
#                   All rights reserved. Version 2017.08                     #
#                                                                            #
#   This copy of Pearson's Crystal Data is licensed to:                      #
#   University of Alberta, Chemistry Department, 1-5 Installations License         #
#                                                                            #
##############################################################################

data_546186
_audit_creation_date                     2017-12-04
_audit_creation_method
;
Pearson's Crystal Data browser
;
#_database_code_PCD                      546186

# Entry summary

_chemical_formula_structural             'Ga Te'
_chemical_formula_sum                    'Ga Te'
_chemical_name_mineral                   ?
_chemical_compound_source                ?
_chemical_name_structure_type            SiAs,mS24,12
_chemical_formula_weight                 197.3

# Bibliographic data

_publ_section_title
'An Electron Microscopic Examination of Monoclinic GaTe'                      
_journal_coden_ASTM                      PSSABA
_journal_name_full                       'Phys. Status Solidi A'
_journal_year                            1980
_journal_volume                          59
_journal_page_first                      K17
_journal_page_last                       K19
_journal_language                        English
loop_
 _publ_author_name
 _publ_author_address
'Karakostas T.'
;
Thessaloniki Aristoteles University
Department of Physics
Thessaloniki
Greece
;
'Antonopoulos J.G.'
;
Thessaloniki Aristoteles University
Department of Physics
Thessaloniki
Greece
;
'Kokkou S.C.'
;
Thessaloniki Aristoteles University
Department of Physics
Thessaloniki
Greece
;
'Bleris G.L.'
;
Thessaloniki Aristoteles University
Department of Physics
Thessaloniki
Greece
;
'Economou N.A.'
;
Thessaloniki Aristoteles University
Department of Physics
Thessaloniki
Greece
;

# Standardized crystallographic data

_cell_length_a                           17.31
_cell_length_b                           4.04
_cell_length_c                           10.52
_cell_angle_alpha                        90
_cell_angle_beta                         101.4
_cell_angle_gamma                        90
_cell_volume                             721.2
_cell_formula_units_Z                    12
_space_group_IT_number                   12
_space_group_name_H-M_alt                'C 1 2/m 1'
loop_
 _space_group_symop_id
 _space_group_symop_operation_xyz
 1 'x, y, z'
 2 '-x, -y, -z'
 3 '-x, y, -z'
 4 'x, -y, z'
 5 '1/2+x, 1/2+y, z'
 6 '1/2-x, 1/2-y, -z'
 7 '1/2-x, 1/2+y, -z'
 8 '1/2+x, 1/2-y, z'

# Atomic positions taken from type-defining entry

loop_
 _atom_type_symbol
 Ga
 Te
loop_
 _atom_site_label
 _atom_site_type_symbol
 _atom_site_symmetry_multiplicity
 _atom_site_Wyckoff_symbol
 _atom_site_fract_x
 _atom_site_fract_y
 _atom_site_fract_z
 _atom_site_occupancy
 Ga1 Ga 4 i 0.1303 0 0.4162 1
 Te1 Te 4 i 0.1521 0 0.0457 1
 Te2 Te 4 i 0.1632 0 0.6738 1
 Ga2 Ga 4 i 0.2387 0 0.2924 1
 Te3 Te 4 i 0.5369 0 0.3239 1
 Ga3 Ga 4 i 0.5661 0 0.0884 1


_exptl_crystal_colour                    ?
_exptl_crystal_density_meas              ?
_exptl_crystal_density_diffrn            5.45
_cell_measurement_temperature            ?
_cell_measurement_radiation              'X-rays, Cu Ka'
_cell_measurement_wavelength             1.54178
_pd_proc_wavelength                      1.54178
_cell_measurement_reflns_used            ?
_diffrn_ambient_temperature              ?
_diffrn_measurement_device               'automatic diffractometer'
_diffrn_measurement_device_type          ?
_diffrn_radiation_type                   ?
_diffrn_reflns_number                    ?
_exptl_absorpt_coefficient_mu            ?
_exptl_absorpt_correction_type           ?
_computing_structure_solution            ?
_refine_ls_number_parameters             ?
_refine_ls_number_reflns                 ?
_refine_ls_R_factor_gt                   ?
_refine_ls_wR_factor_gt                  ?

# Published diffraction lines

loop_
 _refln_index_h
 _refln_index_k
 _refln_index_l
 _refln_d_spacing
 _refln_intensity_meas
 -2 0 1 74.367 29
 -2 0 2 48.875 16
 -4 0 1 42.806 16
 4 0 0 42.104 5
 2 0 2 39.256 8
 -4 0 2 37.269 100
 -2 0 3 34.399 28
 0 0 3 33.727 80
 3 1 0 32.9 100
 -3 1 1 32.666 15
 -1 1 2 32.09 10

# End of data set 546186


