##############################################################################
#                                                                            #
# Gd-O-Si          # Gd2[SiO4]O                                    #  309353 #
#                                                                            #
##############################################################################
#                                                                            #
#                           Pearson's Crystal Data                           #
#      Crystal Structure Database for Inorganic Compounds (on DVD)           #
#                              Release 2017/18                               #
#                  Editors: Pierre Villars and Karin Cenzual                 #
#                                                                            #
#   Copyright (c) ASM International & Material Phases Data System (MPDS),    #
# Switzerland & National Institute for Materials Science (NIMS), Japan, 2017 #
#                   All rights reserved. Version 2017.08                     #
#                                                                            #
#   This copy of Pearson's Crystal Data is licensed to:                      #
#   University of Alberta, Chemistry Department, 1-5 Installations License         #
#                                                                            #
##############################################################################

data_309353
_audit_creation_date                     2017-12-01
_audit_creation_method
;
Pearson's Crystal Data browser
;
#_database_code_PCD                      309353

# Entry summary

_chemical_formula_structural             'Gd~2~ [Si O~4~] O'
_chemical_formula_sum                    'Gd2 O5 Si'
_chemical_name_mineral                   ?
_chemical_compound_source                ?
_chemical_name_structure_type            Gd~2~[SiO~4~]O,mP32,14
_chemical_formula_weight                 422.6
_chemical_melting_point                  2170

# Bibliographic data

_publ_section_title
;
Growth of lanthanide oxyorthosilicate single crystals, and their structural and optical characteristics
;
_journal_coden_ASTM                      INOMAF
_journal_name_full                       'Inorg. Mater.'
_journal_year                            1981
_journal_volume                          17
_journal_page_first                      754
_journal_page_last                       758
_journal_language                        English
loop_
 _publ_author_name
 _publ_author_address
'Anan'eva G.V.'
;
Vavilov State Optical Institute
Saint Petersburg
Russia
;
'Korovkin A.M.'
;
Vavilov State Optical Institute
Saint Petersburg
Russia
;
'Merkulyaeva T.I.'
;
Vavilov State Optical Institute
Saint Petersburg
Russia
;
'Morozova A.M.'
;
Vavilov State Optical Institute
Saint Petersburg
Russia
;
'Petrov M.V.'
;
Vavilov State Optical Institute
Saint Petersburg
Russia
;
'Savinova I.R.'
;
Vavilov State Optical Institute
Saint Petersburg
Russia
;
'Startsev V.R.'
;
Vavilov State Optical Institute
Saint Petersburg
Russia
;
'Feofilov P.P.'
;
Vavilov State Optical Institute
Saint Petersburg
Russia
;

# Standardized crystallographic data

_cell_length_a                           9.16
_cell_length_b                           7.09
_cell_length_c                           6.83
_cell_angle_alpha                        90
_cell_angle_beta                         107.58
_cell_angle_gamma                        90
_cell_volume                             422.9
_cell_formula_units_Z                    4
_space_group_IT_number                   14
_space_group_name_H-M_alt                'P 1 21/c 1'
loop_
 _space_group_symop_id
 _space_group_symop_operation_xyz
 1 'x, y, z'
 2 '-x, -y, -z'
 3 '-x, 1/2+y, 1/2-z'
 4 'x, 1/2-y, 1/2+z'

# Atomic positions taken from type-defining entry

loop_
 _atom_type_symbol
 Gd
 O
 Si
loop_
 _atom_site_label
 _atom_site_type_symbol
 _atom_site_symmetry_multiplicity
 _atom_site_Wyckoff_symbol
 _atom_site_fract_x
 _atom_site_fract_y
 _atom_site_fract_z
 _atom_site_occupancy
 Gd1 Gd 4 e 0.02458 0.12451 0.23428 1
 O1 O 4 e 0.1163 0.3782 0.4513 1
 O2 O 4 e 0.2968 0.0698 0.3547 1
 Si1 Si 4 e 0.298 0.5876 0.0402 1
 O3 O 4 e 0.3683 0.4587 0.248 1
 Gd2 Gd 4 e 0.38547 0.146 0.08372 1
 O4 O 4 e 0.5941 0.2681 0.4507 1
 O5 O 4 e 0.8839 0.3639 0.0059 1


_exptl_crystal_colour                    ?
_exptl_crystal_density_meas              6.77
_exptl_crystal_density_diffrn            6.64
_cell_measurement_temperature            ?
_cell_measurement_radiation              'X-rays, Cu Ka'
_cell_measurement_reflns_used            15
_diffrn_ambient_temperature              ?
_diffrn_measurement_device               'automatic diffractometer'
_diffrn_measurement_device_type          ?
_diffrn_radiation_type                   ?
_diffrn_reflns_number                    ?
_exptl_absorpt_coefficient_mu            ?
_exptl_absorpt_correction_type           ?
_computing_structure_solution            ?
_refine_ls_number_parameters             ?
_refine_ls_number_reflns                 ?
_refine_ls_R_factor_gt                   ?
_refine_ls_wR_factor_gt                  ?

# End of data set 309353


