##############################################################################
#                                                                            #
# Br-Gd            # Gd2Br3                                        #  542051 #
#                                                                            #
##############################################################################
#                                                                            #
#                           Pearson's Crystal Data                           #
#      Crystal Structure Database for Inorganic Compounds (on DVD)           #
#                              Release 2017/18                               #
#                  Editors: Pierre Villars and Karin Cenzual                 #
#                                                                            #
#   Copyright (c) ASM International & Material Phases Data System (MPDS),    #
# Switzerland & National Institute for Materials Science (NIMS), Japan, 2017 #
#                   All rights reserved. Version 2017.08                     #
#                                                                            #
#   This copy of Pearson's Crystal Data is licensed to:                      #
#   University of Alberta, Chemistry Department, 1-5 Installations License         #
#                                                                            #
##############################################################################

data_542051
_audit_creation_date                     2017-12-04
_audit_creation_method
;
Pearson's Crystal Data browser
;
#_database_code_PCD                      542051

# Entry summary

_chemical_formula_structural             'Gd~2~ Br~3~'
_chemical_formula_sum                    'Br3 Gd2'
_chemical_name_mineral                   ?
_chemical_compound_source                ?
_chemical_name_structure_type            Gd~2~Cl~3~,mS20,12
_chemical_formula_weight                 554.2

# Bibliographic data

_publ_section_title
;
Metallreiche Verbindungen der Seltenen Erden Gd~2~Cl~3~, Gd~2~Br~3~ und Tb~2~Cl~3~
;
_journal_coden_ASTM                      ZAACAB
_journal_name_full                       'Z. Anorg. Allg. Chem.'
_journal_year                            1979
_journal_volume                          456
_journal_page_first                      207
_journal_page_last                       216
_journal_language                        German
loop_
 _publ_author_name
 _publ_author_address
'Simon A.'
;
Max Planck Society
Max Planck Institut f\"ur Festk\"orperforschung
Stuttgart
Germany
;
'Holzer N.'
;
Max Planck Society
Max Planck Institut f\"ur Festk\"orperforschung
Stuttgart
Germany
;
'Mattausch H.J.'
;
Max Planck Society
Max Planck Institut f\"ur Festk\"orperforschung
Stuttgart
Germany
;

# Standardized crystallographic data

_cell_length_a                           16.418
_cell_length_b                           3.983
_cell_length_c                           10.753
_cell_angle_alpha                        90
_cell_angle_beta                         119.27
_cell_angle_gamma                        90
_cell_volume                             613.39
_cell_formula_units_Z                    4
_space_group_IT_number                   12
_space_group_name_H-M_alt                'C 1 2/m 1'
loop_
 _space_group_symop_id
 _space_group_symop_operation_xyz
 1 'x, y, z'
 2 '-x, -y, -z'
 3 '-x, y, -z'
 4 'x, -y, z'
 5 '1/2+x, 1/2+y, z'
 6 '1/2-x, 1/2-y, -z'
 7 '1/2-x, 1/2+y, -z'
 8 '1/2+x, 1/2-y, z'
loop_
 _atom_type_symbol
 Gd
 Br
loop_
 _atom_site_label
 _atom_site_type_symbol
 _atom_site_symmetry_multiplicity
 _atom_site_Wyckoff_symbol
 _atom_site_fract_x
 _atom_site_fract_y
 _atom_site_fract_z
 _atom_site_occupancy
 Gd1 Gd 4 i 0.0828 0 0.4523 1
 Br1 Br 4 i 0.1597 0 0.0125 1
 Br2 Br 4 i 0.2709 0 0.3813 1
 Gd2 Gd 4 i 0.3667 0 0.2141 1
 Br3 Br 4 i 0.5477 0 0.2312 1


_exptl_crystal_colour                    'yellow bronze'
_exptl_crystal_density_meas              ?
_exptl_crystal_density_diffrn            6.00
_cell_measurement_temperature            ?
_cell_measurement_radiation              'X-rays, Cu Ka'
_cell_measurement_reflns_used            ?
_diffrn_ambient_temperature              ?
_diffrn_measurement_device               'automatic diffractometer'
_diffrn_measurement_device_type          'Syntex P21'
_diffrn_radiation_type                   'X-rays, Mo Ka'
_diffrn_reflns_number                    ?
_diffrn_reflns_theta_min                 2
_diffrn_reflns_theta_max                 27.5
_exptl_absorpt_coefficient_mu            ?
_exptl_absorpt_correction_type           ?
_computing_structure_solution            'starting values from the literature'
_refine_ls_number_parameters             ?
_refine_ls_number_reflns                 528
_refine_ls_R_factor_gt                   0.118
_refine_ls_wR_factor_gt                  0.096

# End of data set 542051


