##############################################################################
#                                                                            #
# Co-Gd-P          # Gd2Co4P3                                      #  461386 #
#                                                                            #
##############################################################################
#                                                                            #
#                           Pearson's Crystal Data                           #
#      Crystal Structure Database for Inorganic Compounds (on DVD)           #
#                              Release 2017/18                               #
#                  Editors: Pierre Villars and Karin Cenzual                 #
#                                                                            #
#   Copyright (c) ASM International & Material Phases Data System (MPDS),    #
# Switzerland & National Institute for Materials Science (NIMS), Japan, 2017 #
#                   All rights reserved. Version 2017.08                     #
#                                                                            #
#   This copy of Pearson's Crystal Data is licensed to:                      #
#   University of Alberta, Chemistry Department, 1-5 Installations License         #
#                                                                            #
##############################################################################

data_461386
_audit_creation_date                     2017-12-01
_audit_creation_method
;
Pearson's Crystal Data browser
;
#_database_code_PCD                      461386

# Entry summary

_chemical_formula_structural             'Gd~2~ Co~4~ P~3~'
_chemical_formula_sum                    'Co4 Gd2 P3'
_chemical_name_mineral                   ?
_chemical_compound_source                ?
_chemical_name_structure_type            Hf~2~Co~4~P~3~,hP36,189
_chemical_formula_weight                 643.2

# Bibliographic data

_publ_section_title
'X-ray diffraction investigation of the system Gd-Co-P'                       
_journal_coden_ASTM                      INOMAF
_journal_name_full                       'Inorg. Mater.'
_journal_year                            1986
_journal_volume                          22
_journal_page_first                      608
_journal_page_last                       609
_journal_language                        English
loop_
 _publ_author_name
 _publ_author_address
'Kuz'ma Y.B.'
;
Lviv Ivan Franko National University
Lviv
Ukraine
;
'Ovod M.R.'
;
Lviv Ivan Franko National University
Lviv
Ukraine
;
'Davydov V.M.'
;
Lviv Ivan Franko National University
Department of Inorganic Chemistry
Lviv
Ukraine
;

# Standardized crystallographic data

_cell_length_a                           12.261
_cell_length_b                           12.261
_cell_length_c                           3.719
_cell_angle_alpha                        90
_cell_angle_beta                         90
_cell_angle_gamma                        120
_cell_volume                             484.2
_cell_formula_units_Z                    4
_space_group_IT_number                   189
_space_group_name_H-M_alt                'P -6 2 m'
loop_
 _space_group_symop_id
 _space_group_symop_operation_xyz
 1 'x, y, z'
 2 '-x+y, -x, -z'
 3 '-x+y, -x, z'
 4 '-x, -x+y, -z'
 5 '-x, -x+y, z'
 6 '-y, x-y, -z'
 7 '-y, x-y, z'
 8 'x, y, -z'
 9 'x-y, -y, -z'
 10 'x-y, -y, z'
 11 'y, x, -z'
 12 'y, x, z'

# Atomic positions taken from type-defining entry

loop_
 _atom_type_symbol
 P
 Co
 Gd
loop_
 _atom_site_label
 _atom_site_type_symbol
 _atom_site_symmetry_multiplicity
 _atom_site_Wyckoff_symbol
 _atom_site_fract_x
 _atom_site_fract_y
 _atom_site_fract_z
 _atom_site_occupancy
 P1 P 6 k 0.1773 0.487 0.5 1
 Co1 Co 6 k 0.3566 0.4834 0.5 1
 Co2 Co 6 j 0.1776 0.3734 0 1
 Co3 Co 3 g 0.2794 0 0.5 1
 Gd1 Gd 3 g 0.8244 0 0.5 1
 P2 P 3 f 0.1791 0 0 1
 Gd2 Gd 3 f 0.4454 0 0 1
 P3 P 3 f 0.6532 0 0 1
 Gd3 Gd 2 c 0.333333 0.666667 0 1
 Co4 Co 1 a 0 0 0 1


_exptl_crystal_colour                    ?
_exptl_crystal_density_meas              ?
_exptl_crystal_density_diffrn            8.82
_cell_measurement_temperature            ?
_cell_measurement_radiation              'X-rays, Cr Ka'
_cell_measurement_reflns_used            ?
_diffrn_ambient_temperature              ?
_diffrn_measurement_device               film
_diffrn_measurement_device_type          ?
_diffrn_radiation_type                   ?
_diffrn_reflns_number                    ?
_exptl_absorpt_coefficient_mu            ?
_exptl_absorpt_correction_type           ?
_computing_structure_solution            ?
_refine_ls_number_parameters             ?
_refine_ls_number_reflns                 ?
_refine_ls_R_factor_gt                   ?
_refine_ls_wR_factor_gt                  ?

# End of data set 461386


