##############################################################################
#                                                                            #
# Fe-Gd            # Gd2Fe17 ht                                    #  251253 #
#                                                                            #
##############################################################################
#                                                                            #
#                           Pearson's Crystal Data                           #
#      Crystal Structure Database for Inorganic Compounds (on DVD)           #
#                              Release 2017/18                               #
#                  Editors: Pierre Villars and Karin Cenzual                 #
#                                                                            #
#   Copyright (c) ASM International & Material Phases Data System (MPDS),    #
# Switzerland & National Institute for Materials Science (NIMS), Japan, 2017 #
#                   All rights reserved. Version 2017.08                     #
#                                                                            #
#   This copy of Pearson's Crystal Data is licensed to:                      #
#   University of Alberta, Chemistry Department, 1-5 Installations License         #
#                                                                            #
##############################################################################

data_251253
_audit_creation_date                     2017-12-01
_audit_creation_method
;
Pearson's Crystal Data browser
;
#_database_code_PCD                      251253

# Entry summary

_chemical_formula_structural             'Gd~2~ Fe~17~'
_chemical_formula_sum                    'Fe17 Gd2'
_chemical_name_mineral                   ?
_chemical_compound_source                ?
_chemical_name_structure_type            Th~2~Ni~17~,hP38,194
_chemical_formula_weight                 1263.9

# Bibliographic data

_publ_section_title
;
Structures cristallines du compos\'e interm\'etallique (Gd~2/3~Fe~1/3~)Fe~5~
;
_journal_coden_ASTM                      JCOMAH
_journal_name_full                       'J. Less-Common Met.'
_journal_year                            1970
_journal_volume                          21
_journal_page_first                      463
_journal_page_last                       468
_journal_language                        French
loop_
 _publ_author_name
 _publ_author_address
'Givord F.'
;
Grenoble Joseph Fourier Institute
Laboratoire d'Electrostatique et de Physique du M\'etal
Grenoble
France
;
'Lemaire R.'
;
Grenoble Joseph Fourier Institute
Laboratoire d'Electrostatique et de Physique du M\'etal
Grenoble
France
;

# Standardized crystallographic data

_cell_length_a                           8.496
_cell_length_b                           8.496
_cell_length_c                           8.345
_cell_angle_alpha                        90
_cell_angle_beta                         90
_cell_angle_gamma                        120
_cell_volume                             521.66
_cell_formula_units_Z                    2
_space_group_IT_number                   194
_space_group_name_H-M_alt                'P 63/m m c'
loop_
 _space_group_symop_id
 _space_group_symop_operation_xyz
 1 'x, y, z'
 2 '-x+y, -x, 1/2-z'
 3 '-x+y, -x, z'
 4 '-x+y, y, 1/2-z'
 5 '-x+y, y, z'
 6 '-x, -x+y, -z'
 7 '-x, -x+y, 1/2+z'
 8 '-x, -y, -z'
 9 '-x, -y, 1/2+z'
 10 '-y, -x, 1/2-z'
 11 '-y, -x, z'
 12 '-y, x-y, 1/2-z'
 13 '-y, x-y, z'
 14 'x, x-y, 1/2-z'
 15 'x, x-y, z'
 16 'x, y, 1/2-z'
 17 'x-y, -y, -z'
 18 'x-y, -y, 1/2+z'
 19 'x-y, x, -z'
 20 'x-y, x, 1/2+z'
 21 'y, -x+y, -z'
 22 'y, -x+y, 1/2+z'
 23 'y, x, -z'
 24 'y, x, 1/2+z'
loop_
 _atom_type_symbol
 Fe
 Gd
loop_
 _atom_site_label
 _atom_site_type_symbol
 _atom_site_symmetry_multiplicity
 _atom_site_Wyckoff_symbol
 _atom_site_fract_x
 _atom_site_fract_y
 _atom_site_fract_z
 _atom_site_occupancy
 Fe4 Fe 12 k 0.167 0.334 0.015 1
 Fe3 Fe 12 j -0.031 0.333 0.25 1
 Fe2 Fe 6 g 0.5 0 0 1
 Fe1 Fe 4 f 0.333333 0.666667 0.605 1
 Gd2 Gd 2 c 0.333333 0.666667 0.25 1
 Gd1 Gd 2 b 0 0 0.25 1


_exptl_crystal_colour                    ?
_exptl_crystal_density_meas              ?
_exptl_crystal_density_diffrn            8.05
_cell_measurement_temperature            ?
_cell_measurement_radiation              'X-rays, Cr Ka'
_cell_measurement_reflns_used            ?
_diffrn_ambient_temperature              ?
_diffrn_measurement_device               'Debye-Scherrer film'
_diffrn_measurement_device_type          ?
_diffrn_radiation_type                   ?
_diffrn_reflns_number                    ?
_exptl_absorpt_coefficient_mu            ?
_exptl_absorpt_correction_type           ?
_computing_structure_solution            ?
_refine_ls_number_parameters             ?
_refine_ls_number_reflns                 ?
_refine_ls_R_factor_gt                   ?
_refine_ls_wR_factor_gt                  ?

# Published diffraction lines

loop_
 _refln_index_h
 _refln_index_k
 _refln_index_l
 _refln_d_spacing
 _refln_intensity_meas
 1 1 0 0.727 2
 2 0 1 1.158 2
 1 1 2 1.481 5
 2 1 1 1.885 2
 1 0 3 1.936 2
 3 0 0 2.182 5
 2 1 2 2.45 2
 2 0 3 2.665 5
 2 2 0 2.909 7
 3 0 2 2.935 8
 0 0 4 3.014 5
 2 1 3 3.392 3
 2 2 2 3.662 5
 1 1 4 3.742 2
 4 0 1 4.067 2
 3 2 1 4.794 3
 4 1 0 5.09 2
 3 0 4 5.196 3
 4 1 2 5.844 5
 2 2 4 5.923 5
 3 2 3 6.301 3
 2 1 5 6.407 3
 3 3 0 6.545 3
 3 3 2 7.298 7

# End of data set 251253


