##############################################################################
#                                                                            #
# Cl-Gd-N          # Gd2NCl3 mon                                   # 1000358 #
#                                                                            #
##############################################################################
#                                                                            #
#                           Pearson's Crystal Data                           #
#      Crystal Structure Database for Inorganic Compounds (on DVD)           #
#                              Release 2017/18                               #
#                  Editors: Pierre Villars and Karin Cenzual                 #
#                                                                            #
#   Copyright (c) ASM International & Material Phases Data System (MPDS),    #
# Switzerland & National Institute for Materials Science (NIMS), Japan, 2017 #
#                   All rights reserved. Version 2017.08                     #
#                                                                            #
#   This copy of Pearson's Crystal Data is licensed to:                      #
#   University of Alberta, Chemistry Department, 1-5 Installations License         #
#                                                                            #
##############################################################################

data_1000358
_audit_creation_date                     2017-12-04
_audit_creation_method
;
Pearson's Crystal Data browser
;
#_database_code_PCD                      1000358

# Entry summary

_chemical_formula_structural             'Gd~2~ N Cl~3~'
_chemical_formula_sum                    'Cl3 Gd2 N'
_chemical_name_mineral                   ?
_chemical_compound_source                ?
_chemical_name_structure_type            Y~2~NCl~3~,mS24,12
_chemical_formula_weight                 434.9

# Bibliographic data

_publ_section_title
;
A new yttrium sesquichloride nitride, \b-Y~2~Cl~3~N, that is isostructural with the binary yttrium sesquichloride
;
_journal_coden_ASTM                      INOCAJ
_journal_name_full                       'Inorg. Chem.'
_journal_year                            1989
_journal_volume                          28
_journal_page_first                      2635
_journal_page_last                       2637
_journal_language                        English
loop_
 _publ_author_name
 _publ_author_address
'Meyer H.J.'
;
Iowa State Ames University of Science and Technology
Department of Chemistry
Ames
U.S.A. Iowa
;
'Jones N.L.'
;
Iowa State Ames University of Science and Technology
Department of Chemistry
Ames
U.S.A. Iowa
;
'Corbett J.D.'
;
Iowa State Ames University of Science and Technology
Department of Chemistry
Ames
U.S.A. Iowa
;

# Standardized crystallographic data

_cell_length_a                           15.29
_cell_length_b                           3.912
_cell_length_c                           10.209
_cell_angle_alpha                        90
_cell_angle_beta                         117.79
_cell_angle_gamma                        90
_cell_volume                             540.2
_cell_formula_units_Z                    4
_space_group_IT_number                   12
_space_group_name_H-M_alt                'C 1 2/m 1'
loop_
 _space_group_symop_id
 _space_group_symop_operation_xyz
 1 'x, y, z'
 2 '-x, -y, -z'
 3 '-x, y, -z'
 4 'x, -y, z'
 5 '1/2+x, 1/2+y, z'
 6 '1/2-x, 1/2-y, -z'
 7 '1/2-x, 1/2+y, -z'
 8 '1/2+x, 1/2-y, z'

# Atomic positions taken from type-defining entry

loop_
 _atom_type_symbol
 N
 Gd
 Cl
loop_
 _atom_site_label
 _atom_site_type_symbol
 _atom_site_symmetry_multiplicity
 _atom_site_Wyckoff_symbol
 _atom_site_fract_x
 _atom_site_fract_y
 _atom_site_fract_z
 _atom_site_occupancy
 N1 N 4 i 0.079 0 0.6639 1
 Gd1 Gd 4 i 0.08818 0 0.45022 1
 Cl1 Cl 4 i 0.1613 0 0.0132 1
 Cl2 Cl 4 i 0.2705 0 0.384 1
 Gd2 Gd 4 i 0.36497 0 0.20803 1
 Cl3 Cl 4 i 0.5509 0 0.2352 1


_exptl_crystal_colour                    ?
_exptl_crystal_density_meas              ?
_exptl_crystal_density_diffrn            5.35
_cell_measurement_temperature            ?
_cell_measurement_radiation              'X-rays, Cu Ka'
_cell_measurement_wavelength             1.54056
_pd_proc_wavelength                      1.54056
_cell_measurement_reflns_used            62
_diffrn_ambient_temperature              ?
_diffrn_measurement_device               'Guinier film'
_diffrn_measurement_device_type          ?
_diffrn_radiation_type                   ?
_diffrn_reflns_number                    ?
_exptl_absorpt_coefficient_mu            ?
_exptl_absorpt_correction_type           ?
_computing_structure_solution            ?
_refine_ls_number_parameters             ?
_refine_ls_number_reflns                 ?
_refine_ls_R_factor_gt                   ?
_refine_ls_wR_factor_gt                  ?

# End of data set 1000358


