##############################################################################
#                                                                            #
# Co-Gd-Ge         # Gd3Co2Ge4                                     #  540267 #
#                                                                            #
##############################################################################
#                                                                            #
#                           Pearson's Crystal Data                           #
#      Crystal Structure Database for Inorganic Compounds (on DVD)           #
#                              Release 2017/18                               #
#                  Editors: Pierre Villars and Karin Cenzual                 #
#                                                                            #
#   Copyright (c) ASM International & Material Phases Data System (MPDS),    #
# Switzerland & National Institute for Materials Science (NIMS), Japan, 2017 #
#                   All rights reserved. Version 2017.08                     #
#                                                                            #
#   This copy of Pearson's Crystal Data is licensed to:                      #
#   University of Alberta, Chemistry Department, 1-5 Installations License         #
#                                                                            #
##############################################################################

data_540267
_audit_creation_date                     2017-12-04
_audit_creation_method
;
Pearson's Crystal Data browser
;
#_database_code_PCD                      540267

# Entry summary

_chemical_formula_structural             'Gd~3~ Co~2~ Ge~4~'
_chemical_formula_sum                    'Co2 Gd3 Ge4'
_chemical_name_mineral                   ?
_chemical_compound_source                ?
_chemical_name_structure_type            Tb~3~Co~2~Ge~4~,mS18,12
_chemical_formula_weight                 880.0

# Bibliographic data

_publ_section_title
;
Crystal structure of the compounds R~3~Co~2~Ge~4~ (R= Sm, Y, Gd, Dy, Ho, Er, Tm)
;
_journal_coden_ASTM                      INOMAF
_journal_name_full                       'Inorg. Mater.'
_journal_year                            1989
_journal_volume                          25
_journal_page_first                      1708
_journal_page_last                       1710
_journal_language                        English
loop_
 _publ_author_name
 _publ_author_address
'Mrooz O.Y.'
;
Lviv Ivan Franko National University
Lviv
Ukraine
;
'Fedyna M.F.'
;
Lviv Ivan Franko National University
Lviv
Ukraine
;
'Pecharskii V.K.'
;
Lviv Ivan Franko National University
Department of Inorganic Chemistry
Lviv
Ukraine
;
'Bodak O.I.'
;
Lviv Ivan Franko National University
Department of Inorganic Chemistry
Lviv
Ukraine
;

# Standardized crystallographic data

_cell_length_a                           10.742
_cell_length_b                           4.177
_cell_length_c                           8.059
_cell_angle_alpha                        90
_cell_angle_beta                         107.84
_cell_angle_gamma                        90
_cell_volume                             344.2
_cell_formula_units_Z                    2
_space_group_IT_number                   12
_space_group_name_H-M_alt                'C 1 2/m 1'
loop_
 _space_group_symop_id
 _space_group_symop_operation_xyz
 1 'x, y, z'
 2 '-x, -y, -z'
 3 '-x, y, -z'
 4 'x, -y, z'
 5 '1/2+x, 1/2+y, z'
 6 '1/2-x, 1/2-y, -z'
 7 '1/2-x, 1/2+y, -z'
 8 '1/2+x, 1/2-y, z'

# Atomic positions taken from type-defining entry

loop_
 _atom_type_symbol
 Ge
 Co
 Gd
loop_
 _atom_site_label
 _atom_site_type_symbol
 _atom_site_symmetry_multiplicity
 _atom_site_Wyckoff_symbol
 _atom_site_fract_x
 _atom_site_fract_y
 _atom_site_fract_z
 _atom_site_occupancy
 Ge1 Ge 4 i 0.0964 0 0.3998 1
 Co1 Co 4 i 0.3096 0 0.6312 1
 Gd1 Gd 4 i 0.3771 0 0.3076 1
 Ge2 Ge 4 i 0.7105 0 0.0796 1
 Gd2 Gd 2 a 0 0 0 1


_exptl_crystal_colour                    ?
_exptl_crystal_density_meas              ?
_exptl_crystal_density_diffrn            8.49
_cell_measurement_temperature            ?
_cell_measurement_radiation              'X-rays, Cr Ka'
_cell_measurement_reflns_used            ?
_diffrn_ambient_temperature              ?
_diffrn_measurement_device               'Debye film'
_diffrn_measurement_device_type          ?
_diffrn_radiation_type                   ?
_diffrn_reflns_number                    ?
_exptl_absorpt_coefficient_mu            ?
_exptl_absorpt_correction_type           ?
_computing_structure_solution            ?
_refine_ls_number_parameters             ?
_refine_ls_number_reflns                 ?
_refine_ls_R_factor_gt                   ?
_refine_ls_wR_factor_gt                  ?

# End of data set 540267


