##############################################################################
#                                                                            #
# Gd-I-Mn          # Gd3MnI3                                       # 1001428 #
#                                                                            #
##############################################################################
#                                                                            #
#                           Pearson's Crystal Data                           #
#      Crystal Structure Database for Inorganic Compounds (on DVD)           #
#                              Release 2017/18                               #
#                  Editors: Pierre Villars and Karin Cenzual                 #
#                                                                            #
#   Copyright (c) ASM International & Material Phases Data System (MPDS),    #
# Switzerland & National Institute for Materials Science (NIMS), Japan, 2017 #
#                   All rights reserved. Version 2017.08                     #
#                                                                            #
#   This copy of Pearson's Crystal Data is licensed to:                      #
#   University of Alberta, Chemistry Department, 1-5 Installations License         #
#                                                                            #
##############################################################################

data_1001428
_audit_creation_date                     2017-12-04
_audit_creation_method
;
Pearson's Crystal Data browser
;
#_database_code_PCD                      1001428

# Entry summary

_chemical_formula_structural             'Gd~3~ Mn I~3~'
_chemical_formula_sum                    'Gd3 I3 Mn'
_chemical_name_mineral                   ?
_chemical_compound_source                ?
_chemical_name_structure_type            Pr~3~RuI~3~,mP14,11
_chemical_formula_weight                 907.4

# Bibliographic data

_publ_section_title
;
Novel chain and oligomeric condensed cluster phases for gadolinium iodides with manganese interstitials
;
_journal_coden_ASTM                      INOCAJ
_journal_name_full                       'Inorg. Chem.'
_journal_year                            1994
_journal_volume                          33
_journal_page_first                      2079
_journal_page_last                       2084
_journal_language                        English
loop_
 _publ_author_name
 _publ_author_address
'Ebihara M.'
;
Iowa State Ames University of Science and Technology
Department of Chemistry
Ames
U.S.A. Iowa
;
'Martin J.D.'
;
Iowa State Ames University of Science and Technology
Department of Chemistry
Ames
U.S.A. Iowa
;
'Corbett J.D.'
;
Iowa State Ames University of Science and Technology
Department of Chemistry
Ames
U.S.A. Iowa
;

# Standardized crystallographic data

_cell_length_a                           8.928
_cell_length_b                           4.127
_cell_length_c                           12.266
_cell_angle_alpha                        90
_cell_angle_beta                         95.51
_cell_angle_gamma                        90
_cell_volume                             449.86
_cell_formula_units_Z                    2
_space_group_IT_number                   11
_space_group_name_H-M_alt                'P 1 21/m 1'
loop_
 _space_group_symop_id
 _space_group_symop_operation_xyz
 1 'x, y, z'
 2 '-x, -y, -z'
 3 '-x, 1/2+y, -z'
 4 'x, 1/2-y, z'
loop_
 _atom_type_symbol
 Gd
 Mn
 I
loop_
 _atom_site_label
 _atom_site_type_symbol
 _atom_site_symmetry_multiplicity
 _atom_site_Wyckoff_symbol
 _atom_site_fract_x
 _atom_site_fract_y
 _atom_site_fract_z
 _atom_site_occupancy
 Gd1 Gd 2 e 0.1647 0.25 0.3578 1
 Mn Mn 2 e 0.0299 0.25 0.5673 1
 Gd2 Gd 2 e 0.093 0.25 0.8209 1
 I3 I 2 e 0.1492 0.25 0.1001 1
 I1 I 2 e 0.5585 0.25 0.638 1
 I2 I 2 e 0.6459 0.25 0.1316 1
 Gd3 Gd 2 e 0.7355 0.25 0.3923 1


_exptl_crystal_colour                    ?
_exptl_crystal_density_meas              ?
_exptl_crystal_density_diffrn            6.70
_cell_measurement_temperature            ?
_cell_measurement_radiation              'X-rays, Cu Ka1'
_cell_measurement_wavelength             1.54056
_pd_proc_wavelength                      1.54056
_cell_measurement_reflns_used            ?
_diffrn_ambient_temperature              ?
_diffrn_measurement_device               'automatic diffractometer'
_diffrn_measurement_device_type          'Rigaku AFC6R'
_diffrn_radiation_type                   'X-rays, Mo Ka'
_diffrn_reflns_number                    ?
_exptl_absorpt_coefficient_mu            33.38
_exptl_absorpt_correction_type           yes
_computing_structure_solution            'direct methods, Fourier synthesis'
_refine_ls_number_parameters             44
_refine_ls_number_reflns                 745
_refine_ls_R_factor_gt                   0.041
_refine_ls_wR_factor_gt                  0.048

# End of data set 1001428


