##############################################################################
#                                                                            #
# Co-Gd-S          # Gd4CoS7                                       #  381564 #
#                                                                            #
##############################################################################
#                                                                            #
#                           Pearson's Crystal Data                           #
#      Crystal Structure Database for Inorganic Compounds (on DVD)           #
#                              Release 2017/18                               #
#                  Editors: Pierre Villars and Karin Cenzual                 #
#                                                                            #
#   Copyright (c) ASM International & Material Phases Data System (MPDS),    #
# Switzerland & National Institute for Materials Science (NIMS), Japan, 2017 #
#                   All rights reserved. Version 2017.08                     #
#                                                                            #
#   This copy of Pearson's Crystal Data is licensed to:                      #
#   University of Alberta, Chemistry Department, 1-5 Installations License         #
#                                                                            #
##############################################################################

data_381564
_audit_creation_date                     2017-12-01
_audit_creation_method
;
Pearson's Crystal Data browser
;
#_database_code_PCD                      381564

# Entry summary

_chemical_formula_structural             'Gd~4~ Co S~7~'
_chemical_formula_sum                    'Co Gd4 S7'
_chemical_name_mineral                   ?
_chemical_compound_source                ?
_chemical_name_structure_type            Ce~3~Al~1.67~S~7~,hP24,173
_chemical_formula_weight                 912.4

# Bibliographic data

_publ_section_title
;
Synthesis and physico-chemical study of the Me^2+^Ln~4~S~7~(Se~7~) type compounds
;
_journal_coden_ASTM                      BSCFAS
_journal_name_full                       'Bull. Soc. Chim. Fr.'
_journal_year                            1986
_journal_volume                          ?
_journal_page_first                      26
_journal_page_last                       28
_journal_language                        English
loop_
 _publ_author_name
 _publ_author_address
'Aliev O.M.'
;
Azerbaijan Academy of Sciences
Institute of Inorganic and Physical Chemistry
Baku
Azerbaijan
;
'Khasaev G.G.'
;
Azerbaijan Academy of Sciences
Institute of Inorganic and Physical Chemistry
Baku
Azerbaijan
;
'Kurbanov T.K.'
;
Azerbaijan Academy of Sciences
Institute of Inorganic and Physical Chemistry
Baku
Azerbaijan
;

# Standardized crystallographic data

_cell_length_a                           10
_cell_length_b                           10
_cell_length_c                           5.22
_cell_angle_alpha                        90
_cell_angle_beta                         90
_cell_angle_gamma                        120
_cell_volume                             452.1
_cell_formula_units_Z                    2
_space_group_IT_number                   173
_space_group_name_H-M_alt                'P 63'
loop_
 _space_group_symop_id
 _space_group_symop_operation_xyz
 1 'x, y, z'
 2 '-x+y, -x, z'
 3 '-x, -y, 1/2+z'
 4 '-y, x-y, z'
 5 'x-y, x, 1/2+z'
 6 'y, -x+y, 1/2+z'

# Atomic positions taken from type-defining entry

loop_
 _atom_type_symbol
 S
 Gd
 Co
loop_
 _atom_site_label
 _atom_site_type_symbol
 _atom_site_symmetry_multiplicity
 _atom_site_Wyckoff_symbol
 _atom_site_fract_x
 _atom_site_fract_y
 _atom_site_fract_z
 _atom_site_occupancy
 S1 S 6 c 0.089 0.231 0.282 1
 Gd1 Gd 6 c 0.375 0.232 0.231 1
 S2 S 6 c 0.518 0.097 0.499 1
 Gd2 Gd 2 b 0.333333 0.666667 0.158 1
 S3 S 2 b 0.333333 0.666667 0.502 1
 Co1 Co 2 a 0 0 0.0 1


_exptl_crystal_colour                    ?
_exptl_crystal_density_meas              ?
_exptl_crystal_density_diffrn            6.70
_cell_measurement_temperature            ?
_cell_measurement_radiation              X-rays
_cell_measurement_reflns_used            ?
_diffrn_ambient_temperature              ?
_diffrn_measurement_device               film
_diffrn_measurement_device_type          ?
_diffrn_radiation_type                   ?
_diffrn_reflns_number                    ?
_exptl_absorpt_coefficient_mu            ?
_exptl_absorpt_correction_type           ?
_computing_structure_solution            ?
_refine_ls_number_parameters             ?
_refine_ls_number_reflns                 ?
_refine_ls_R_factor_gt                   ?
_refine_ls_wR_factor_gt                  ?

# End of data set 381564


