##############################################################################
#                                                                            #
# Bi-Gd            # Gd5Bi3 Bi+                                    #  530399 #
#                                                                            #
##############################################################################
#                                                                            #
#                           Pearson's Crystal Data                           #
#      Crystal Structure Database for Inorganic Compounds (on DVD)           #
#                              Release 2017/18                               #
#                  Editors: Pierre Villars and Karin Cenzual                 #
#                                                                            #
#   Copyright (c) ASM International & Material Phases Data System (MPDS),    #
# Switzerland & National Institute for Materials Science (NIMS), Japan, 2017 #
#                   All rights reserved. Version 2017.08                     #
#                                                                            #
#   This copy of Pearson's Crystal Data is licensed to:                      #
#   University of Alberta, Chemistry Department, 1-5 Installations License         #
#                                                                            #
##############################################################################

data_530399
_audit_creation_date                     2017-12-01
_audit_creation_method
;
Pearson's Crystal Data browser
;
#_database_code_PCD                      530399

# Entry summary

_chemical_formula_structural             'Gd~5~ Bi~3~'
_chemical_formula_sum                    'Bi3 Gd5'
_chemical_name_mineral                   ?
_chemical_compound_source                ?
_chemical_name_structure_type            Mn~5~Si~3~,hP16,193
_chemical_formula_weight                 1413.2

# Bibliographic data

_publ_section_title
'Rare-earth bismuthides with D8~8~ and Hf~5~Sn~3~Cu-type structures'          
_journal_coden_ASTM                      JCOMAH
_journal_name_full                       'J. Less-Common Met.'
_journal_year                            1969
_journal_volume                          17
_journal_page_first                      291
_journal_page_last                       296
_journal_language                        English
loop_
 _publ_author_name
 _publ_author_address
'Hohnke D.'
;
Pennsylvania Philadelphia University
Department of Metallurgy and Materials
Philadelphia
U.S.A. Pennsylvania
;
'Parth\'e E.'
;
Pennsylvania Philadelphia University
Department of Metallurgy and Materials
Philadelphia
U.S.A. Pennsylvania
;

# Standardized crystallographic data

_cell_length_a                           9.182
_cell_length_b                           9.182
_cell_length_c                           6.426
_cell_angle_alpha                        90
_cell_angle_beta                         90
_cell_angle_gamma                        120
_cell_volume                             469.19
_cell_formula_units_Z                    2
_space_group_IT_number                   193
_space_group_name_H-M_alt                'P 63/m c m'
loop_
 _space_group_symop_id
 _space_group_symop_operation_xyz
 1 'x, y, z'
 2 '-x+y, -x, 1/2-z'
 3 '-x+y, -x, z'
 4 '-x+y, y, -z'
 5 '-x+y, y, 1/2+z'
 6 '-x, -x+y, 1/2-z'
 7 '-x, -x+y, z'
 8 '-x, -y, -z'
 9 '-x, -y, 1/2+z'
 10 '-y, -x, -z'
 11 '-y, -x, 1/2+z'
 12 '-y, x-y, 1/2-z'
 13 '-y, x-y, z'
 14 'x, x-y, -z'
 15 'x, x-y, 1/2+z'
 16 'x, y, 1/2-z'
 17 'x-y, -y, 1/2-z'
 18 'x-y, -y, z'
 19 'x-y, x, -z'
 20 'x-y, x, 1/2+z'
 21 'y, -x+y, -z'
 22 'y, -x+y, 1/2+z'
 23 'y, x, 1/2-z'
 24 'y, x, z'
loop_
 _atom_type_symbol
 Gd
 Bi
loop_
 _atom_site_label
 _atom_site_type_symbol
 _atom_site_symmetry_multiplicity
 _atom_site_Wyckoff_symbol
 _atom_site_fract_x
 _atom_site_fract_y
 _atom_site_fract_z
 _atom_site_occupancy
 Gd1 Gd 6 g 0.242 0 0.25 1
 Bi Bi 6 g 0.606 0 0.25 1
 Gd2 Gd 4 d 0.333333 0.666667 0 1


_exptl_crystal_colour                    ?
_exptl_crystal_density_meas              ?
_exptl_crystal_density_diffrn            10.00
_cell_measurement_temperature            ?
_cell_measurement_radiation              'X-rays, Cr Ka'
_cell_measurement_wavelength             2.2909
_pd_proc_wavelength                      2.2909
_cell_measurement_reflns_used            ?
_diffrn_ambient_temperature              ?
_diffrn_measurement_device               film
_diffrn_measurement_device_type          ?
_diffrn_radiation_type                   'X-rays, Cr Ka'
_diffrn_radiation_wavelength             2.2909
_diffrn_reflns_number                    ?
_exptl_absorpt_coefficient_mu            ?
_exptl_absorpt_correction_type           ?
_computing_structure_solution            'starting values from the literature'
_refine_ls_number_parameters             ?
_refine_ls_number_reflns                 ?
_refine_ls_R_factor_gt                   0.132
_refine_ls_wR_factor_gt                  ?
_pd_proc_ls_proof_R_factor               ?
_pd_proc_ls_proof_wR_factor              ?
_refine_ls_R_I_factor                    ?

# Published diffraction lines

loop_
 _refln_index_h
 _refln_index_k
 _refln_index_l
 _refln_d_spacing
 _refln_intensity_meas
 1 1 0 624 3
 1 1 1 946 7
 0 0 2 1280 22
 2 1 0 1458 26
 1 0 2 1483 8
 2 1 1 1766 100
 3 0 0 1867 40
 1 1 2 1888 73
 2 0 2 2091 9
 3 1 0 2694 7
 2 2 1 2814 9
 3 1 1 3021 20
 3 0 2 3141 3
 2 2 2 3758 16
 3 2 1 4266 8
 2 1 3 4316 35
 4 0 2 4587 7
 0 0 4 5089 9
 5 0 0 5195 18
 3 1 3 5561 10
 3 3 0 5618 5
 4 2 0 5809 12
 3 3 1 5920 10
 4 2 1 6120 9
 5 0 2 6454 28
 2 1 4 6543 7
 5 1 1 6748 7
 3 2 3 6798 7
 3 3 2 6870 7
 3 0 4 6959 22
 4 3 1 7995 9
 5 2 0 8090 6
 5 2 1 8411 10
 3 3 3 8458 15
 4 2 3 8674 15
 6 0 2 8740 11
 6 1 0 8924 22
 5 1 3 9300 14

# End of data set 530399


