##############################################################################
#                                                                            #
# Gd-Ge            # Gd5Ge3 rt                                     #  549987 #
#                                                                            #
##############################################################################
#                                                                            #
#                           Pearson's Crystal Data                           #
#      Crystal Structure Database for Inorganic Compounds (on DVD)           #
#                              Release 2017/18                               #
#                  Editors: Pierre Villars and Karin Cenzual                 #
#                                                                            #
#   Copyright (c) ASM International & Material Phases Data System (MPDS),    #
# Switzerland & National Institute for Materials Science (NIMS), Japan, 2017 #
#                   All rights reserved. Version 2017.08                     #
#                                                                            #
#   This copy of Pearson's Crystal Data is licensed to:                      #
#   University of Alberta, Chemistry Department, 1-5 Installations License         #
#                                                                            #
##############################################################################

data_549987
_audit_creation_date                     2017-12-04
_audit_creation_method
;
Pearson's Crystal Data browser
;
#_database_code_PCD                      549987

# Entry summary

_chemical_formula_structural             'Gd~5~ Ge~3~'
_chemical_formula_sum                    'Gd5 Ge3'
_chemical_name_mineral                   ?
_chemical_compound_source                ?
_chemical_name_structure_type            Mn~5~Si~3~,hP16,193
_chemical_formula_weight                 1004.0

# Bibliographic data

_publ_section_title
'Compounds of gadolinium with germanium and their crystal structures'         
_journal_coden_ASTM                      INOMAF
_journal_name_full                       'Inorg. Mater.'
_journal_year                            1965
_journal_volume                          1
_journal_page_first                      1374
_journal_page_last                       1377
_journal_language                        English
loop_
 _publ_author_name
 _publ_author_address
'Gladyshevskii E.I.'
;
Lviv Ivan Franko National University
Department of Inorganic Chemistry
Lviv
Ukraine
;
'Burnasheva V.V.'
;
Lviv Ivan Franko National University
Lviv
Ukraine
;

# Standardized crystallographic data

_cell_length_a                           8.58
_cell_length_b                           8.58
_cell_length_c                           6.45
_cell_angle_alpha                        90
_cell_angle_beta                         90
_cell_angle_gamma                        120
_cell_volume                             411.2
_cell_formula_units_Z                    2
_space_group_IT_number                   193
_space_group_name_H-M_alt                'P 63/m c m'
loop_
 _space_group_symop_id
 _space_group_symop_operation_xyz
 1 'x, y, z'
 2 '-x+y, -x, 1/2-z'
 3 '-x+y, -x, z'
 4 '-x+y, y, -z'
 5 '-x+y, y, 1/2+z'
 6 '-x, -x+y, 1/2-z'
 7 '-x, -x+y, z'
 8 '-x, -y, -z'
 9 '-x, -y, 1/2+z'
 10 '-y, -x, -z'
 11 '-y, -x, 1/2+z'
 12 '-y, x-y, 1/2-z'
 13 '-y, x-y, z'
 14 'x, x-y, -z'
 15 'x, x-y, 1/2+z'
 16 'x, y, 1/2-z'
 17 'x-y, -y, 1/2-z'
 18 'x-y, -y, z'
 19 'x-y, x, -z'
 20 'x-y, x, 1/2+z'
 21 'y, -x+y, -z'
 22 'y, -x+y, 1/2+z'
 23 'y, x, 1/2-z'
 24 'y, x, z'
loop_
 _atom_type_symbol
 Gd
 Ge
loop_
 _atom_site_label
 _atom_site_type_symbol
 _atom_site_symmetry_multiplicity
 _atom_site_Wyckoff_symbol
 _atom_site_fract_x
 _atom_site_fract_y
 _atom_site_fract_z
 _atom_site_occupancy
 Gd2 Gd 6 g 0.24 0 0.25 1
 Ge Ge 6 g 0.61 0 0.25 1
 Gd1 Gd 4 d 0.333333 0.666667 0 1


_exptl_crystal_colour                    ?
_exptl_crystal_density_meas              ?
_exptl_crystal_density_diffrn            8.11
_cell_measurement_temperature            ?
_cell_measurement_radiation              'X-rays, Cr Ka'
_cell_measurement_reflns_used            ?
_diffrn_ambient_temperature              ?
_diffrn_measurement_device               film
_diffrn_measurement_device_type          ?
_diffrn_radiation_type                   'X-rays, Cr Ka'
_diffrn_reflns_number                    ?
_exptl_absorpt_coefficient_mu            ?
_exptl_absorpt_correction_type           ?
_computing_structure_solution            'starting values from the literature'
_refine_ls_number_parameters             ?
_refine_ls_number_reflns                 ?
_refine_ls_R_factor_gt                   ?
_refine_ls_wR_factor_gt                  ?
_pd_proc_ls_proof_R_factor               ?
_pd_proc_ls_proof_wR_factor              ?
_refine_ls_R_I_factor                    ?

# Published diffraction lines

loop_
 _refln_index_h
 _refln_index_k
 _refln_index_l
 _refln_d_spacing
 _refln_intensity_meas
 1 1 0 43 2
 2 0 0 37.1 10
 1 1 1 35.7 5
 0 0 2 32.2 5
 1 0 2 29.6 20
 2 1 0 28.1 20
 1 1 2 25.8 100
 3 0 0 24.8 20
 2 0 2 24.4 2
 3 1 0 20.6 2
 2 2 1 20.3 5
 3 0 2 19.6 2
 4 0 0 18.55 2
 2 2 2 17.86 20
 3 1 2 17.36 5
 2 1 3 17.07 30
 3 2 1 16.47 10
 4 1 0 16.19 10
 0 0 4 16.08 30
 2 2 3 15.19 2
 3 2 2 15.07 2
 3 1 3 14.84 5
 4 1 2 14.49 5
 3 3 0 14.35 5
 4 2 0 14.06 10
 2 1 4 13.99 20
 4 2 1 13.72 0
 3 0 4 13.49 30
 3 2 3 13.35 20
 3 3 2 13.06 30
 2 2 4 12.88 5
 3 1 4 12.7 5
 6 0 0 12.37 5
 4 3 0 12.18 10
 4 3 1 12 10
 3 3 3 11.91 30

# End of data set 549987


