##############################################################################
#                                                                            #
# Gd-Pb            # Gd5Pb3                                        #  454112 #
#                                                                            #
##############################################################################
#                                                                            #
#                           Pearson's Crystal Data                           #
#      Crystal Structure Database for Inorganic Compounds (on DVD)           #
#                              Release 2017/18                               #
#                  Editors: Pierre Villars and Karin Cenzual                 #
#                                                                            #
#   Copyright (c) ASM International & Material Phases Data System (MPDS),    #
# Switzerland & National Institute for Materials Science (NIMS), Japan, 2017 #
#                   All rights reserved. Version 2017.08                     #
#                                                                            #
#   This copy of Pearson's Crystal Data is licensed to:                      #
#   University of Alberta, Chemistry Department, 1-5 Installations License         #
#                                                                            #
##############################################################################

data_454112
_audit_creation_date                     2017-12-01
_audit_creation_method
;
Pearson's Crystal Data browser
;
#_database_code_PCD                      454112

# Entry summary

_chemical_formula_structural             'Gd~5~ Pb~3~'
_chemical_formula_sum                    'Gd5 Pb3'
_chemical_name_mineral                   ?
_chemical_compound_source                ?
_chemical_name_structure_type            Mn~5~Si~3~,hP16,193
_chemical_formula_weight                 1407.8
_chemical_melting_point                  1943(5)

# Bibliographic data

_publ_section_title                      'The gadolinium-lead system'
_journal_coden_ASTM                      JNUMAM
_journal_name_full                       'J. Nucl. Mater.'
_journal_year                            1969
_journal_volume                          29
_journal_page_first                      111
_journal_page_last                       120
_journal_language                        English
loop_
 _publ_author_name
 _publ_author_address
'Demel J.T.'
;
Iowa State Ames University of Science and Technology
Institute for Atomic Research
Ames
U.S.A. Iowa
;
'Gschneidner K.A. Jr.'
;
Iowa State Ames University of Science and Technology
Institute for Atomic Research
Ames
U.S.A. Iowa
;

# Standardized crystallographic data

_cell_length_a                           9.078
_cell_length_b                           9.078
_cell_length_c                           6.644
_cell_angle_alpha                        90
_cell_angle_beta                         90
_cell_angle_gamma                        120
_cell_volume                             474.18
_cell_formula_units_Z                    2
_space_group_IT_number                   193
_space_group_name_H-M_alt                'P 63/m c m'
loop_
 _space_group_symop_id
 _space_group_symop_operation_xyz
 1 'x, y, z'
 2 '-x+y, -x, 1/2-z'
 3 '-x+y, -x, z'
 4 '-x+y, y, -z'
 5 '-x+y, y, 1/2+z'
 6 '-x, -x+y, 1/2-z'
 7 '-x, -x+y, z'
 8 '-x, -y, -z'
 9 '-x, -y, 1/2+z'
 10 '-y, -x, -z'
 11 '-y, -x, 1/2+z'
 12 '-y, x-y, 1/2-z'
 13 '-y, x-y, z'
 14 'x, x-y, -z'
 15 'x, x-y, 1/2+z'
 16 'x, y, 1/2-z'
 17 'x-y, -y, 1/2-z'
 18 'x-y, -y, z'
 19 'x-y, x, -z'
 20 'x-y, x, 1/2+z'
 21 'y, -x+y, -z'
 22 'y, -x+y, 1/2+z'
 23 'y, x, 1/2-z'
 24 'y, x, z'

# Atomic positions taken from type-defining entry

loop_
 _atom_type_symbol
 Gd
 Pb
loop_
 _atom_site_label
 _atom_site_type_symbol
 _atom_site_symmetry_multiplicity
 _atom_site_Wyckoff_symbol
 _atom_site_fract_x
 _atom_site_fract_y
 _atom_site_fract_z
 _atom_site_occupancy
 Gd1 Gd 6 g 0.236 0 0.25 1
 Pb1 Pb 6 g 0.5991 0 0.25 1
 Gd2 Gd 4 d 0.333333 0.666667 0 1


_exptl_crystal_colour                    ?
_exptl_crystal_density_meas              ?
_exptl_crystal_density_diffrn            9.86
_cell_measurement_temperature            ?
_cell_measurement_radiation              'X-rays, Cu Ka'
_cell_measurement_reflns_used            ?
_diffrn_ambient_temperature              ?
_diffrn_measurement_device               film
_diffrn_measurement_device_type          ?
_diffrn_radiation_type                   ?
_diffrn_reflns_number                    ?
_exptl_absorpt_coefficient_mu            ?
_exptl_absorpt_correction_type           ?
_computing_structure_solution            ?
_refine_ls_number_parameters             ?
_refine_ls_number_reflns                 ?
_refine_ls_R_factor_gt                   ?
_refine_ls_wR_factor_gt                  ?

# Published diffraction lines

loop_
 _refln_index_h
 _refln_index_k
 _refln_index_l
 _refln_d_spacing
 _refln_intensity_meas
 1 1 1 0.427 3
 0 0 2 0.545 5
 1 0 2 0.668 2
 2 1 0 0.683 5
 2 1 1 0.815 8
 1 1 2 0.834 7
 3 0 0 0.872 7
 2 0 2 0.931 3
 3 1 0 1.261 3
 2 2 1 1.294 3
 3 1 1 1.389 5
 1 1 3 1.51 2
 2 2 2 1.698 5
 2 1 3 1.892 7
 3 2 1 1.963 3
 4 1 0 2.024 3
 4 0 2 2.084 3
 0 0 4 2.163 5
 3 2 2 2.363 4
 3 1 3 2.472 4
 4 2 0 2.691 2
 3 3 1 2.726 3
 4 2 1 2.829 3
 5 0 2 2.944 5
 3 0 4 3.024 3
 3 3 2 3.124 3
 4 2 2 3.228 1
 3 1 4 3.408 1
 4 3 1 3.682 1
 3 3 3 3.809 1
 4 2 3 3.895 1
 6 0 2 3.993 1
 2 1 5 4.046 2
 6 1 0 4.123 1
 4 1 4 4.164 1
 5 0 4 4.549 1
 4 2 4 4.84 2
 1 0 6 4.936 1
 6 2 1 5.12 2
 7 0 2 5.24 3
 7 1 1 5.607 2
 6 3 1 6.177 2
 6 1 4 6.27 2
 6 3 2 6.58 3
 8 0 2 6.671 3
 5 0 6 7.256 3

# End of data set 454112


