##############################################################################
#                                                                            #
# Gd-Ru            # Gd5Ru2                                        #  450351 #
#                                                                            #
##############################################################################
#                                                                            #
#                           Pearson's Crystal Data                           #
#      Crystal Structure Database for Inorganic Compounds (on DVD)           #
#                              Release 2017/18                               #
#                  Editors: Pierre Villars and Karin Cenzual                 #
#                                                                            #
#   Copyright (c) ASM International & Material Phases Data System (MPDS),    #
# Switzerland & National Institute for Materials Science (NIMS), Japan, 2017 #
#                   All rights reserved. Version 2017.08                     #
#                                                                            #
#   This copy of Pearson's Crystal Data is licensed to:                      #
#   University of Alberta, Chemistry Department, 1-5 Installations License         #
#                                                                            #
##############################################################################

data_450351
_audit_creation_date                     2017-12-01
_audit_creation_method
;
Pearson's Crystal Data browser
;
#_database_code_PCD                      450351

# Entry summary

_chemical_formula_structural             'Gd~5~ Ru~2~'
_chemical_formula_sum                    'Gd5 Ru2'
_chemical_name_mineral                   ?
_chemical_compound_source                ?
_chemical_name_structure_type            Mn~5~C~2~,mS28,15
_chemical_formula_weight                 988.4

# Bibliographic data

_publ_section_title
;
The crystal structure of the rare earth rich ruthenium compounds R~3~Ru and R~5~Ru~2~
;
_journal_coden_ASTM                      JCOMAH
_journal_name_full                       'J. Less-Common Met.'
_journal_year                            1979
_journal_volume                          66
_journal_page_first                      P27
_journal_page_last                       P33
_journal_language                        English
loop_
 _publ_author_name
 _publ_author_address
'Palenzona A.'
;
Genova University
Istituto di Chimica Fisica
Genova
Italy
;

# Standardized crystallographic data

_cell_length_a                           15.939
_cell_length_b                           6.391
_cell_length_c                           7.324
_cell_angle_alpha                        90
_cell_angle_beta                         97.05
_cell_angle_gamma                        90
_cell_volume                             740.43
_cell_formula_units_Z                    4
_space_group_IT_number                   15
_space_group_name_H-M_alt                'C 1 2/c 1'
loop_
 _space_group_symop_id
 _space_group_symop_operation_xyz
 1 'x, y, z'
 2 '-x, -y, -z'
 3 '-x, y, 1/2-z'
 4 'x, -y, 1/2+z'
 5 '1/2+x, 1/2+y, z'
 6 '1/2-x, 1/2-y, -z'
 7 '1/2-x, 1/2+y, 1/2-z'
 8 '1/2+x, 1/2-y, 1/2+z'

# Atomic positions taken from type-defining entry

loop_
 _atom_type_symbol
 Ru
 Gd
loop_
 _atom_site_label
 _atom_site_type_symbol
 _atom_site_symmetry_multiplicity
 _atom_site_Wyckoff_symbol
 _atom_site_fract_x
 _atom_site_fract_y
 _atom_site_fract_z
 _atom_site_occupancy
 Ru1 Ru 8 f 0.1123 0.1960 0.5743 1
 Gd1 Gd 8 f 0.222 0.096 0.300 1
 Gd2 Gd 8 f 0.401 0.093 0.064 1
 Gd3 Gd 4 e 0 0.091 0.25 1


_exptl_crystal_colour                    ?
_exptl_crystal_density_meas              ?
_exptl_crystal_density_diffrn            8.87
_cell_measurement_temperature            ?
_cell_measurement_radiation              'X-rays, Cu Ka'
_cell_measurement_reflns_used            ?
_diffrn_ambient_temperature              ?
_diffrn_measurement_device               'Guinier film'
_diffrn_measurement_device_type          ?
_diffrn_radiation_type                   ?
_diffrn_reflns_number                    ?
_exptl_absorpt_coefficient_mu            ?
_exptl_absorpt_correction_type           ?
_computing_structure_solution            ?
_refine_ls_number_parameters             ?
_refine_ls_number_reflns                 ?
_refine_ls_R_factor_gt                   ?
_refine_ls_wR_factor_gt                  ?

# Published diffraction lines

loop_
 _refln_index_h
 _refln_index_k
 _refln_index_l
 _refln_d_spacing
 _refln_intensity_meas
 1 1 1 45.1 3
 3 1 1 34.16 2
 1 1 -2 31.61 6
 1 1 2 30.35 3
 0 2 1 29.26 7
 4 0 -2 28.52 8
 5 1 0 28.34 8
 2 2 -1 27.92 5
 5 1 -1 27.46 4
 2 2 1 27 5
 6 0 0 26.38 3
 3 1 2 25.9 5
 5 1 1 25.48 5
 4 0 2 25.26 5
 4 2 0 24.86 4
 4 2 -1 24.1 4
 0 2 2 23.94 3
 5 1 -2 23.64 3
 2 2 -2 23.49 2
 1 1 -3 22.79 6
 6 0 -2 22.71 3
 2 2 2 22.48 2
 1 1 3 22.08 3
 3 1 -3 21.77 2
 3 3 -1 19.29 4
 3 3 1 18.85 3
 1 3 -2 18.35 3
 1 1 -4 17.58 5
 7 1 2 17.45 5

# End of data set 450351


