##############################################################################
#                                                                            #
# As-Gd-Ni         # Gd7Ni19As13                                   #  459839 #
#                                                                            #
##############################################################################
#                                                                            #
#                           Pearson's Crystal Data                           #
#      Crystal Structure Database for Inorganic Compounds (on DVD)           #
#                              Release 2017/18                               #
#                  Editors: Pierre Villars and Karin Cenzual                 #
#                                                                            #
#   Copyright (c) ASM International & Material Phases Data System (MPDS),    #
# Switzerland & National Institute for Materials Science (NIMS), Japan, 2017 #
#                   All rights reserved. Version 2017.08                     #
#                                                                            #
#   This copy of Pearson's Crystal Data is licensed to:                      #
#   University of Alberta, Chemistry Department, 1-5 Installations License         #
#                                                                            #
##############################################################################

data_459839
_audit_creation_date                     2017-12-01
_audit_creation_method
;
Pearson's Crystal Data browser
;
#_database_code_PCD                      459839

# Entry summary

_chemical_formula_structural             'Gd~7~ Ni~19~ As~13~'
_chemical_formula_sum                    'As13 Gd7 Ni19'
_chemical_name_mineral                   ?
_chemical_compound_source                ?
_chemical_name_structure_type            Zr~6~Ni~20~P~13~,hP39,174
_chemical_formula_weight                 3190.0

# Bibliographic data

_publ_section_title
;
Mise en \'evidence d'une nouvelle s\'erie de pnictures ternaires de formule g\'en\'erale Ln~6~Ni~20~X~13~ (X= P, As)
;
_journal_coden_ASTM                      JSSCBI
_journal_name_full                       'J. Solid State Chem.'
_journal_year                            1985
_journal_volume                          56
_journal_page_first                      335
_journal_page_last                       342
_journal_language                        French
loop_
 _publ_author_name
 _publ_author_address
'Madar R.'
;
Centre National de la Recherche Scientifique (CNRS)
Saint-Martin-d'H\`eres
France
;
'Chaudouet P.'
;
Centre National de la Recherche Scientifique (CNRS)
Saint-Martin-d'H\`eres
France
;
'Dhahri E.'
;
Centre National de la Recherche Scientifique (CNRS)
Saint-Martin-d'H\`eres
France
;
'S\'enateur J.P.'
;
Saint-Martin-d'H\`eres Ecole Nationale Sup\'erieure de Physique
Saint-Martin-d'H\`eres
France
;
'Fruchart R.'
;
Centre National de la Recherche Scientifique (CNRS)
Saint-Martin-d'H\`eres
France
;
'Lambert B.'
;
Grenoble Joseph Fourier Institute
Laboratoire de Cristallographie
Grenoble
France
;

# Standardized crystallographic data

_cell_length_a                           13.128
_cell_length_b                           13.128
_cell_length_c                           3.894
_cell_angle_alpha                        90
_cell_angle_beta                         90
_cell_angle_gamma                        120
_cell_volume                             581.2
_cell_formula_units_Z                    1
_space_group_IT_number                   174
_space_group_name_H-M_alt                'P -6'
loop_
 _space_group_symop_id
 _space_group_symop_operation_xyz
 1 'x, y, z'
 2 '-x+y, -x, -z'
 3 '-x+y, -x, z'
 4 '-y, x-y, -z'
 5 '-y, x-y, z'
 6 'x, y, -z'

# Atomic positions taken from type-defining entry

loop_
 _atom_type_symbol
 Ni
 Gd
 As
loop_
 _atom_site_label
 _atom_site_type_symbol
 _atom_site_symmetry_multiplicity
 _atom_site_Wyckoff_symbol
 _atom_site_fract_x
 _atom_site_fract_y
 _atom_site_fract_z
 _atom_site_occupancy
 M1A Ni 3 k 0.0183 0.586 0.5 0.950
 M1B Ni 3 k 0.0183 0.586 0.5 0.050
 M2A Ni 3 k 0.0789 0.1623 0.5 0.950
 M2B Ni 3 k 0.0789 0.1623 0.5 0.050
 Gd1 Gd 3 k 0.1888 0.4732 0.5 1
 As1 As 3 k 0.289 0.2312 0.5 1
 M3A Ni 3 k 0.3238 0.0716 0.5 0.950
 M3B Ni 3 k 0.3238 0.0716 0.5 0.050
 As2 As 3 k 0.5279 0.1406 0.5 1
 As3 As 3 j 0.0483 0.2834 0 1
 As4 As 3 j 0.139 0.613 0 1
 M4A Ni 3 j 0.2012 0.1068 0 0.950
 M4B Ni 3 j 0.2012 0.1068 0 0.050
 M5A Ni 3 j 0.2473 0.3256 0 0.950
 M5B Ni 3 j 0.2473 0.3256 0 0.050
 M6A Ni 3 j 0.4414 0.0213 0 0.950
 M6B Ni 3 j 0.4414 0.0213 0 0.050
 Gd2 Gd 3 j 0.4739 0.2799 0 1
 M7A Ni 1 f 0.666667 0.333333 0.5 0.950
 M7B Ni 1 f 0.666667 0.333333 0.5 0.050
 M8A Ni 1 c 0.333333 0.666667 0 0.950
 M8B Ni 1 c 0.333333 0.666667 0 0.050
 As5 As 1 a 0 0 0 1


_exptl_crystal_colour                    ?
_exptl_crystal_density_meas              ?
_exptl_crystal_density_diffrn            9.11
_cell_measurement_temperature            ?
_cell_measurement_radiation              'X-rays, Cr Ka1'
_cell_measurement_reflns_used            ?
_diffrn_ambient_temperature              ?
_diffrn_measurement_device               'Bohlin-Seemann film'
_diffrn_measurement_device_type          ?
_diffrn_radiation_type                   ?
_diffrn_reflns_number                    ?
_exptl_absorpt_coefficient_mu            ?
_exptl_absorpt_correction_type           ?
_computing_structure_solution            ?
_refine_ls_number_parameters             ?
_refine_ls_number_reflns                 ?
_refine_ls_R_factor_gt                   ?
_refine_ls_wR_factor_gt                  ?

# End of data set 459839


