##############################################################################
#                                                                            #
# Al-Gd            # GdAl3                                         #  250718 #
#                                                                            #
##############################################################################
#                                                                            #
#                           Pearson's Crystal Data                           #
#      Crystal Structure Database for Inorganic Compounds (on DVD)           #
#                              Release 2017/18                               #
#                  Editors: Pierre Villars and Karin Cenzual                 #
#                                                                            #
#   Copyright (c) ASM International & Material Phases Data System (MPDS),    #
# Switzerland & National Institute for Materials Science (NIMS), Japan, 2017 #
#                   All rights reserved. Version 2017.08                     #
#                                                                            #
#   This copy of Pearson's Crystal Data is licensed to:                      #
#   University of Alberta, Chemistry Department, 1-5 Installations License         #
#                                                                            #
##############################################################################

data_250718
_audit_creation_date                     2017-12-01
_audit_creation_method
;
Pearson's Crystal Data browser
;
#_database_code_PCD                      250718

# Entry summary

_chemical_formula_structural             'Gd Al~3~'
_chemical_formula_sum                    'Al3 Gd'
_chemical_name_mineral                   ?
_chemical_compound_source                ?
_chemical_name_structure_type            Mg~3~Cd,hP8,194
_chemical_formula_weight                 238.2
_chemical_melting_point                  916

# Bibliographic data

_publ_section_title
;
Phase equilibria in aluminium-rich alloys of aluminium-gadolinium and aluminium-terbium
;
_journal_coden_ASTM                      JCOMAH
_journal_name_full                       'J. Less-Common Met.'
_journal_year                            1967
_journal_volume                          13
_journal_page_first                      431
_journal_page_last                       442
_journal_language                        English
loop_
 _publ_author_name
 _publ_author_address
'Runnalls O.J.C.'
;
Atomic Energy Canada Ltd.
Chalk River Nuclear Laboratories
Chalk River
Canada
;
'Boucher R.R.'
;
Atomic Energy Canada Ltd.
Chalk River Nuclear Laboratories
Chalk River
Canada
;

# Standardized crystallographic data

_cell_length_a                           6.331
_cell_length_b                           6.331
_cell_length_c                           4.6
_cell_angle_alpha                        90
_cell_angle_beta                         90
_cell_angle_gamma                        120
_cell_volume                             159.67
_cell_formula_units_Z                    2
_space_group_IT_number                   194
_space_group_name_H-M_alt                'P 63/m m c'
loop_
 _space_group_symop_id
 _space_group_symop_operation_xyz
 1 'x, y, z'
 2 '-x+y, -x, 1/2-z'
 3 '-x+y, -x, z'
 4 '-x+y, y, 1/2-z'
 5 '-x+y, y, z'
 6 '-x, -x+y, -z'
 7 '-x, -x+y, 1/2+z'
 8 '-x, -y, -z'
 9 '-x, -y, 1/2+z'
 10 '-y, -x, 1/2-z'
 11 '-y, -x, z'
 12 '-y, x-y, 1/2-z'
 13 '-y, x-y, z'
 14 'x, x-y, 1/2-z'
 15 'x, x-y, z'
 16 'x, y, 1/2-z'
 17 'x-y, -y, -z'
 18 'x-y, -y, 1/2+z'
 19 'x-y, x, -z'
 20 'x-y, x, 1/2+z'
 21 'y, -x+y, -z'
 22 'y, -x+y, 1/2+z'
 23 'y, x, -z'
 24 'y, x, 1/2+z'

# Atomic positions taken from type-defining entry

loop_
 _atom_type_symbol
 Al
 Gd
loop_
 _atom_site_label
 _atom_site_type_symbol
 _atom_site_symmetry_multiplicity
 _atom_site_Wyckoff_symbol
 _atom_site_fract_x
 _atom_site_fract_y
 _atom_site_fract_z
 _atom_site_occupancy
 Al1 Al 6 h 0.16667 0.33333 0.25 1
 Gd1 Gd 2 d 0.333333 0.666667 0.75 1


_exptl_crystal_colour                    ?
_exptl_crystal_density_meas              4.87
_exptl_crystal_density_diffrn            4.95
_cell_measurement_temperature            ?
_cell_measurement_radiation              'X-rays, Cu Ka'
_cell_measurement_reflns_used            ?
_diffrn_ambient_temperature              ?
_diffrn_measurement_device               diffractometer
_diffrn_measurement_device_type          ?
_diffrn_radiation_type                   ?
_diffrn_reflns_number                    ?
_exptl_absorpt_coefficient_mu            ?
_exptl_absorpt_correction_type           ?
_computing_structure_solution            ?
_refine_ls_number_parameters             ?
_refine_ls_number_reflns                 ?
_refine_ls_R_factor_gt                   ?
_refine_ls_wR_factor_gt                  ?

# Published diffraction lines

loop_
 _refln_index_h
 _refln_index_k
 _refln_index_l
 _refln_d_spacing
 _refln_intensity_meas
 1 0 0 54.54 2.5
 1 0 1 34.82 7
 1 1 0 31.4 5
 2 0 0 27.19 5
 2 0 1 23.39 7.5
 0 0 2 22.82 5.5
 1 0 2 21.06 2.5
 2 1 0 20.63 3.5
 2 1 1 18.77 5
 1 1 2 18.5 5
 3 0 0 18.17 3.5
 2 0 2 17.54 4.5
 3 0 1 16.87 2
 2 2 0 15.75 5
 2 1 2 15.34 3.5
 3 1 0 15.13 2.5
 1 0 3 14.7 5
 3 1 1 14.4 5.5
 3 0 2 14.26 3
 4 0 0 13.67 2.5
 2 0 3 13.34 6.5
 4 0 1 13.1 5
 2 2 2 13.02 5.5
 3 1 2 12.66 2.5
 3 2 0 12.54 2
 2 1 3 12.29 3
 3 2 1 12.1 3.5
 4 1 0 11.93 3
 4 0 2 11.75 2.5
 4 1 1 11.57 2
 0 0 4 11.48 3
 5 0 0 10.94 2
 1 1 4 10.79 5
 5 0 1 10.66 2
 4 1 2 10.6 5
 3 3 0 10.55 2
 4 2 0 10.35 2
 4 0 3 10.22 3
 4 2 1 10.11 4.5
 2 1 4 10.05 3
 5 0 2 9.89 2
 3 0 4 9.73 4.5
 5 1 1 9.62 3.5
 3 3 2 9.58 3.5
 4 1 3 9.424 2
 2 2 4 9.294 5
 3 1 4 9.161 2
 6 0 0 9.125 2.5
 1 0 5 9.063 3
 4 3 0 9.004 2
 5 0 3 8.91 2
 4 3 1 8.838 3
 4 0 4 8.802 2
 5 2 0 8.772 3
 2 0 5 8.715 5
 5 2 1 8.618 2
 4 2 3 8.58 5
 6 0 2 8.49 4.5
 6 1 0 8.357 2
 5 1 3 8.285 5.5
 6 1 1 8.224 5
 5 0 4 7.933 2.5
 4 4 0 7.912 2.5
 3 1 5 7.871 5.5
 5 3 0 7.833 2
 3 3 4 7.774 5
 5 3 1 7.72 5.5

# End of data set 250718


