##############################################################################
#                                                                            #
# B-Gd-O           # GdB3O6                                        # 1001775 #
#                                                                            #
##############################################################################
#                                                                            #
#                           Pearson's Crystal Data                           #
#      Crystal Structure Database for Inorganic Compounds (on DVD)           #
#                              Release 2017/18                               #
#                  Editors: Pierre Villars and Karin Cenzual                 #
#                                                                            #
#   Copyright (c) ASM International & Material Phases Data System (MPDS),    #
# Switzerland & National Institute for Materials Science (NIMS), Japan, 2017 #
#                   All rights reserved. Version 2017.08                     #
#                                                                            #
#   This copy of Pearson's Crystal Data is licensed to:                      #
#   University of Alberta, Chemistry Department, 1-5 Installations License         #
#                                                                            #
##############################################################################

data_1001775
_audit_creation_date                     2017-12-04
_audit_creation_method
;
Pearson's Crystal Data browser
;
#_database_code_PCD                      1001775

# Entry summary

_chemical_formula_structural             'Gd B~3~ O~6~'
_chemical_formula_sum                    'B3 Gd O6'
_chemical_name_mineral                   ?
_chemical_compound_source                ?
_chemical_name_structure_type            LaB~3~O~6~,mS40,15
_chemical_formula_weight                 285.7
_chemical_melting_point                  1358(20)

# Bibliographic data

_publ_section_title
;
Gadolinium and Yttrium Borates: Thermal Behavior and Structural Considerations
;
_journal_coden_ASTM                      JSSCBI
_journal_name_full                       'J. Solid State Chem.'
_journal_year                            2000
_journal_volume                          154
_journal_page_first                      204
_journal_page_last                       213
_journal_language                        English
loop_
 _publ_author_name
 _publ_author_address
'Cohen Adad M.T.S.'
;
Villeurbanne Lyon I Claude Bernard University
Laboratoire de Physico-Chimie des Mat\'eriaux Luminescents
Villeurbanne
France
;
'Kappenstein C.'
;
Poitiers University
Laboratoire de Catalyse en Chimie Organique
Poitiers
France
;
'Aloui Lebbou O.'
;
Villeurbanne Lyon I Claude Bernard University
Laboratoire de Physico-Chimie des Mat\'eriaux Luminescents
Villeurbanne
France
;
'Goutaudier C.'
;
Villeurbanne Lyon I Claude Bernard University
Laboratoire de Physico-Chimie des Mat\'eriaux Luminescents
Villeurbanne
France
;
'Panczer G.'
;
Villeurbanne Lyon I Claude Bernard University
Laboratoire de Physico-Chimie des Mat\'eriaux Luminescents
Villeurbanne
France
;
'Dujardin C.'
;
Villeurbanne Lyon I Claude Bernard University
Laboratoire de Physico-Chimie des Mat\'eriaux Luminescents
Villeurbanne
France
;
'Pedrini C.'
;
Villeurbanne Lyon I Claude Bernard University
Laboratoire de Physico-Chimie des Mat\'eriaux Luminescents
Villeurbanne
France
;
'Florian P.'
;
Centre National de la Recherche Scientifique (CNRS)
Centre de Recherche sur la Physique des Hautes Temp\'eratures
Orl\'eans
France
;
'Massiot D.'
;
Centre National de la Recherche Scientifique (CNRS)
Centre de Recherche sur la Physique des Hautes Temp\'eratures
Orl\'eans
France
;
'Gerard F.'
;
Poitiers University
Laboratoire de Catalyse en Chimie Organique
Poitiers
France
;

# Standardized crystallographic data

_cell_length_a                           9.6965
_cell_length_b                           8.03
_cell_length_c                           6.26
_cell_angle_alpha                        90
_cell_angle_beta                         126.409
_cell_angle_gamma                        90
_cell_volume                             392.3
_cell_formula_units_Z                    4
_space_group_IT_number                   15
_space_group_name_H-M_alt                'C 1 2/c 1'
loop_
 _space_group_symop_id
 _space_group_symop_operation_xyz
 1 'x, y, z'
 2 '-x, -y, -z'
 3 '-x, y, 1/2-z'
 4 'x, -y, 1/2+z'
 5 '1/2+x, 1/2+y, z'
 6 '1/2-x, 1/2-y, -z'
 7 '1/2-x, 1/2+y, 1/2-z'
 8 '1/2+x, 1/2-y, 1/2+z'

# Atomic positions taken from type-defining entry

loop_
 _atom_type_symbol
 O
 B
 Gd
loop_
 _atom_site_label
 _atom_site_type_symbol
 _atom_site_symmetry_multiplicity
 _atom_site_Wyckoff_symbol
 _atom_site_fract_x
 _atom_site_fract_y
 _atom_site_fract_z
 _atom_site_occupancy
 O1 O 8 f 0.1068 0.1148 0.2123 1
 O2 O 8 f 0.1082 0.3127 0.4993 1
 B1 B 8 f 0.2714 0.0696 0.4126 1
 O3 O 8 f 0.2982 0.0833 0.0027 1
 B2 B 4 e 0 0.2195 0.25 1
 Gd1 Gd 4 e 0 0.80085 0.25 1


_exptl_crystal_colour                    ?
_exptl_crystal_density_meas              ?
_exptl_crystal_density_diffrn            4.84
_cell_measurement_temperature            ?
_cell_measurement_radiation              'X-rays, Cu Ka'
_cell_measurement_reflns_used            ?
_diffrn_ambient_temperature              ?
_diffrn_measurement_device               'automatic diffractometer'
_diffrn_measurement_device_type          ?
_diffrn_radiation_type                   ?
_diffrn_reflns_number                    ?
_exptl_absorpt_coefficient_mu            ?
_exptl_absorpt_correction_type           ?
_computing_structure_solution            ?
_refine_ls_number_parameters             ?
_refine_ls_number_reflns                 ?
_refine_ls_R_factor_gt                   ?
_refine_ls_wR_factor_gt                  ?

# End of data set 1001775


