##############################################################################
#                                                                            #
# Br-Gd            # GdBr3                                         #  541236 #
#                                                                            #
##############################################################################
#                                                                            #
#                           Pearson's Crystal Data                           #
#      Crystal Structure Database for Inorganic Compounds (on DVD)           #
#                              Release 2017/18                               #
#                  Editors: Pierre Villars and Karin Cenzual                 #
#                                                                            #
#   Copyright (c) ASM International & Material Phases Data System (MPDS),    #
# Switzerland & National Institute for Materials Science (NIMS), Japan, 2017 #
#                   All rights reserved. Version 2017.08                     #
#                                                                            #
#   This copy of Pearson's Crystal Data is licensed to:                      #
#   University of Alberta, Chemistry Department, 1-5 Installations License         #
#                                                                            #
##############################################################################

data_541236
_audit_creation_date                     2017-12-04
_audit_creation_method
;
Pearson's Crystal Data browser
;
#_database_code_PCD                      541236

# Entry summary

_chemical_formula_structural             'Gd Br~3~'
_chemical_formula_sum                    'Br3 Gd'
_chemical_name_mineral                   ?
_chemical_compound_source                ?
_chemical_name_structure_type            AlCl~3~,mS16,12
_chemical_formula_weight                 397.0

# Bibliographic data

_publ_section_title
;
The crystal structure and X-ray diffraction data for anhydrous gadolinium bromide
;
_journal_coden_ASTM                      ACBCAR
_journal_name_full                       'Acta Crystallogr. B'
_journal_year                            1973
_journal_volume                          29
_journal_page_first                      1740
_journal_page_last                       1743
_journal_language                        English
loop_
 _publ_author_name
 _publ_author_address
'Thomas H.H.'
;
Goodyear Atomic Corp.
Piketon
U.S.A. Ohio
;
'Baker W.A. Jr.'
;
Texas Arlington University
Department of Chemistry and Biochemistry
Arlington
U.S.A. Texas
;

# Standardized crystallographic data

_cell_length_a                           7.224
_cell_length_b                           12.512
_cell_length_c                           6.84
_cell_angle_alpha                        90
_cell_angle_beta                         110.6
_cell_angle_gamma                        90
_cell_volume                             578.71
_cell_formula_units_Z                    4
_space_group_IT_number                   12
_space_group_name_H-M_alt                'C 1 2/m 1'
loop_
 _space_group_symop_id
 _space_group_symop_operation_xyz
 1 'x, y, z'
 2 '-x, -y, -z'
 3 '-x, y, -z'
 4 'x, -y, z'
 5 '1/2+x, 1/2+y, z'
 6 '1/2-x, 1/2-y, -z'
 7 '1/2-x, 1/2+y, -z'
 8 '1/2+x, 1/2-y, z'
loop_
 _atom_type_symbol
 Br
 Gd
loop_
 _atom_site_label
 _atom_site_type_symbol
 _atom_site_symmetry_multiplicity
 _atom_site_Wyckoff_symbol
 _atom_site_fract_x
 _atom_site_fract_y
 _atom_site_fract_z
 _atom_site_occupancy
 Br2 Br 8 j 0.25 0.333 0.25 1
 Br1 Br 4 i 0.21 0 0.21 1
 Gd Gd 4 g 0 0.167 0 1


_exptl_crystal_colour                    ?
_exptl_crystal_density_meas              4.3
_exptl_crystal_density_diffrn            4.56
_cell_measurement_temperature            ?
_cell_measurement_radiation              'X-rays, Cu Ka'
_cell_measurement_reflns_used            ?
_diffrn_ambient_temperature              ?
_diffrn_measurement_device               'Straumanis film'
_diffrn_measurement_device_type          ?
_diffrn_radiation_type                   'X-rays, Cu Ka'
_diffrn_reflns_number                    ?
_exptl_absorpt_coefficient_mu            ?
_exptl_absorpt_correction_type           ?
_computing_structure_solution            'starting values from the literature'
_refine_ls_number_parameters             ?
_refine_ls_number_reflns                 ?
_refine_ls_R_factor_gt                   ?
_refine_ls_wR_factor_gt                  ?
_pd_proc_ls_proof_R_factor               ?
_pd_proc_ls_proof_wR_factor              ?
_refine_ls_R_I_factor                    ?

# Published diffraction lines

loop_
 _refln_index_h
 _refln_index_k
 _refln_index_l
 _refln_d_spacing
 _refln_intensity_meas
 0 0 1 64.18 7
 1 3 0 35.47 5
 1 3 -1 33.81 3
 0 0 2 32.01 2
 2 0 -2 28.85 9
 2 0 1 26.28 2
 1 3 2 21.87 1
 0 6 0 20.85 7
 2 0 2 20 8
 3 3 -2 19.82 5
 2 6 -1 17.98 1
 3 3 1 17.49 1
 4 0 0 16.9 3
 0 0 4 16.01 2
 2 6 2 14.43 3
 1 9 1 13.13 3

# End of data set 541236


