##############################################################################
#                                                                            #
# Al-Gd-Ni         # GdNiAl                                        #  535379 #
#                                                                            #
##############################################################################
#                                                                            #
#                           Pearson's Crystal Data                           #
#      Crystal Structure Database for Inorganic Compounds (on DVD)           #
#                              Release 2017/18                               #
#                  Editors: Pierre Villars and Karin Cenzual                 #
#                                                                            #
#   Copyright (c) ASM International & Material Phases Data System (MPDS),    #
# Switzerland & National Institute for Materials Science (NIMS), Japan, 2017 #
#                   All rights reserved. Version 2017.08                     #
#                                                                            #
#   This copy of Pearson's Crystal Data is licensed to:                      #
#   University of Alberta, Chemistry Department, 1-5 Installations License         #
#                                                                            #
##############################################################################

data_535379
_audit_creation_date                     2017-12-04
_audit_creation_method
;
Pearson's Crystal Data browser
;
#_database_code_PCD                      535379

# Entry summary

_chemical_formula_structural             'Gd Ni Al'
_chemical_formula_sum                    'Al Gd Ni'
_chemical_name_mineral                   ?
_chemical_compound_source                ?
_chemical_name_structure_type            ZrNiAl,hP9,189
_chemical_formula_weight                 242.9

# Bibliographic data

_publ_section_title
;
Constitution and magnetic properties of the GdAl~2~-GdFe~2~, GdAl~2~-GdCo~2~ and ErCo~2~-ErAl~2~ systems
;
_journal_coden_ASTM                      JCOMAH
_journal_name_full                       'J. Less-Common Met.'
_journal_year                            1967
_journal_volume                          13
_journal_page_first                      91
_journal_page_last                       102
_journal_language                        English
loop_
 _publ_author_name
 _publ_author_address
'Oesterreicher H.'
;
Pennsylvania Pittsburgh University
Department of Chemistry
Pittsburgh
U.S.A. Pennsylvania
;
'Wallace W.E.'
;
Pennsylvania Pittsburgh University
Department of Chemistry
Pittsburgh
U.S.A. Pennsylvania
;

# Standardized crystallographic data

_cell_length_a                           7.011
_cell_length_b                           7.011
_cell_length_c                           3.914
_cell_angle_alpha                        90
_cell_angle_beta                         90
_cell_angle_gamma                        120
_cell_volume                             166.6
_cell_formula_units_Z                    3
_space_group_IT_number                   189
_space_group_name_H-M_alt                'P -6 2 m'
loop_
 _space_group_symop_id
 _space_group_symop_operation_xyz
 1 'x, y, z'
 2 '-x+y, -x, -z'
 3 '-x+y, -x, z'
 4 '-x, -x+y, -z'
 5 '-x, -x+y, z'
 6 '-y, x-y, -z'
 7 '-y, x-y, z'
 8 'x, y, -z'
 9 'x-y, -y, -z'
 10 'x-y, -y, z'
 11 'y, x, -z'
 12 'y, x, z'

# Atomic positions taken from type-defining entry

loop_
 _atom_type_symbol
 Al
 Gd
 Ni
loop_
 _atom_site_label
 _atom_site_type_symbol
 _atom_site_symmetry_multiplicity
 _atom_site_Wyckoff_symbol
 _atom_site_fract_x
 _atom_site_fract_y
 _atom_site_fract_z
 _atom_site_occupancy
 Al1 Al 3 g 0.2505 0 0.5 1
 Gd1 Gd 3 f 0.5925 0 0 1
 Ni1 Ni 2 d 0.333333 0.666667 0.5 1
 Ni2 Ni 1 a 0 0 0 1


_exptl_crystal_colour                    ?
_exptl_crystal_density_meas              ?
_exptl_crystal_density_diffrn            7.26
_cell_measurement_temperature            ?
_cell_measurement_radiation              'X-rays, Cu Ka, Mo Ka'
_cell_measurement_reflns_used            ?
_diffrn_ambient_temperature              ?
_diffrn_measurement_device               'automatic diffractometer'
_diffrn_measurement_device_type          ?
_diffrn_radiation_type                   ?
_diffrn_reflns_number                    ?
_exptl_absorpt_coefficient_mu            ?
_exptl_absorpt_correction_type           ?
_computing_structure_solution            ?
_refine_ls_number_parameters             ?
_refine_ls_number_reflns                 ?
_refine_ls_R_factor_gt                   ?
_refine_ls_wR_factor_gt                  ?

# Published diffraction lines

loop_
 _refln_index_h
 _refln_index_k
 _refln_index_l
 _refln_d_spacing
 _refln_intensity_meas
 1 0 0 1630 118
 0 0 1 3880 276
 1 1 0 4840 394
 1 0 1 5500 20
 2 0 0 6410 434
 1 1 1 8710 1000
 2 0 1 10330 894
 2 1 0 11280 338
 3 0 0 14440 174
 2 1 1 15100 190
 0 0 2 15520 220
 1 0 2 17110 14
 2 2 0 19290 46
 1 1 2 20370 66
 3 1 0 20930 210
 2 0 2 21930 78
 2 2 1 23180 32
 3 1 1 24150 292

# End of data set 535379


