##############################################################################
#                                                                            #
# Al-Gd-Ni         # GdNiAl                                        #  458802 #
#                                                                            #
##############################################################################
#                                                                            #
#                           Pearson's Crystal Data                           #
#      Crystal Structure Database for Inorganic Compounds (on DVD)           #
#                              Release 2017/18                               #
#                  Editors: Pierre Villars and Karin Cenzual                 #
#                                                                            #
#   Copyright (c) ASM International & Material Phases Data System (MPDS),    #
# Switzerland & National Institute for Materials Science (NIMS), Japan, 2017 #
#                   All rights reserved. Version 2017.08                     #
#                                                                            #
#   This copy of Pearson's Crystal Data is licensed to:                      #
#   University of Alberta, Chemistry Department, 1-5 Installations License         #
#                                                                            #
##############################################################################

data_458802
_audit_creation_date                     2017-12-01
_audit_creation_method
;
Pearson's Crystal Data browser
;
#_database_code_PCD                      458802

# Entry summary

_chemical_formula_structural             'Gd Ni Al'
_chemical_formula_sum                    'Al Gd Ni'
_chemical_name_mineral                   ?
_chemical_compound_source                ?
_chemical_name_structure_type            ZrNiAl,hP9,189
_chemical_formula_weight                 242.9

# Bibliographic data

_publ_section_title
'Structural and magnetic studies on rare-earth compounds RNiAl and RCuAl'     
_journal_coden_ASTM                      JCOMAH
_journal_name_full                       'J. Less-Common Met.'
_journal_year                            1973
_journal_volume                          30
_journal_page_first                      225
_journal_page_last                       236
_journal_language                        English
loop_
 _publ_author_name
 _publ_author_address
'Oesterreicher H.'
;
Oregon Beaverton Graduate Center
Beaverton
U.S.A. Oregon
;

# Standardized crystallographic data

_cell_length_a                           7.011
_cell_length_b                           7.011
_cell_length_c                           3.914
_cell_angle_alpha                        90
_cell_angle_beta                         90
_cell_angle_gamma                        120
_cell_volume                             166.6
_cell_formula_units_Z                    3
_space_group_IT_number                   189
_space_group_name_H-M_alt                'P -6 2 m'
loop_
 _space_group_symop_id
 _space_group_symop_operation_xyz
 1 'x, y, z'
 2 '-x+y, -x, -z'
 3 '-x+y, -x, z'
 4 '-x, -x+y, -z'
 5 '-x, -x+y, z'
 6 '-y, x-y, -z'
 7 '-y, x-y, z'
 8 'x, y, -z'
 9 'x-y, -y, -z'
 10 'x-y, -y, z'
 11 'y, x, -z'
 12 'y, x, z'
loop_
 _atom_type_symbol
 Al
 Gd
 Ni
loop_
 _atom_site_label
 _atom_site_type_symbol
 _atom_site_symmetry_multiplicity
 _atom_site_Wyckoff_symbol
 _atom_site_fract_x
 _atom_site_fract_y
 _atom_site_fract_z
 _atom_site_occupancy
 Al Al 3 g 0.219 0 0.5 1
 Gd Gd 3 f 0.58 0 0 1
 Ni2 Ni 2 d 0.333333 0.666667 0.5 1
 Ni1 Ni 1 a 0 0 0 1


_exptl_crystal_colour                    ?
_exptl_crystal_density_meas              ?
_exptl_crystal_density_diffrn            7.26
_cell_measurement_temperature            ?
_cell_measurement_radiation              'X-rays, Cr Ka, Cu Ka'
_cell_measurement_reflns_used            ?
_diffrn_ambient_temperature              ?
_diffrn_measurement_device               film
_diffrn_measurement_device_type          ?
_diffrn_radiation_type                   'X-rays, Cr Ka, Cu Ka'
_diffrn_reflns_number                    ?
_exptl_absorpt_coefficient_mu            ?
_exptl_absorpt_correction_type           ?
_computing_structure_solution            'starting values from the literature'
_refine_ls_number_parameters             ?
_refine_ls_number_reflns                 ?
_refine_ls_R_factor_gt                   ?
_refine_ls_wR_factor_gt                  ?
_pd_proc_ls_proof_R_factor               ?
_pd_proc_ls_proof_wR_factor              ?
_refine_ls_R_I_factor                    ?

# Published diffraction lines

loop_
 _refln_index_h
 _refln_index_k
 _refln_index_l
 _refln_d_spacing
 _refln_intensity_meas
 1 0 0 60.717 118
 0 0 1 39.14 278
 1 1 0 35.055 394
 1 0 1 32.8971 20
 2 0 0 30.3585 434
 1 1 1 26.1128 1000
 2 0 1 23.9884 894
 2 1 0 22.9488 338
 3 0 0 20.239 174
 2 1 1 19.7969 190
 0 0 2 19.57 220
 1 0 2 18.6263 14
 2 2 0 17.5275 46
 1 1 2 17.0875 66
 3 1 0 16.8398 210
 2 0 2 16.4485 78
 2 2 1 15.9967 32
 3 1 1 15.4688 292

# End of data set 458802


