##############################################################################
#                                                                            #
# Gd-Pt-Sn         # GdPt2Sn                                       #  539683 #
#                                                                            #
##############################################################################
#                                                                            #
#                           Pearson's Crystal Data                           #
#      Crystal Structure Database for Inorganic Compounds (on DVD)           #
#                              Release 2017/18                               #
#                  Editors: Pierre Villars and Karin Cenzual                 #
#                                                                            #
#   Copyright (c) ASM International & Material Phases Data System (MPDS),    #
# Switzerland & National Institute for Materials Science (NIMS), Japan, 2017 #
#                   All rights reserved. Version 2017.08                     #
#                                                                            #
#   This copy of Pearson's Crystal Data is licensed to:                      #
#   University of Alberta, Chemistry Department, 1-5 Installations License         #
#                                                                            #
##############################################################################

data_539683
_audit_creation_date                     2017-12-04
_audit_creation_method
;
Pearson's Crystal Data browser
;
#_database_code_PCD                      539683

# Entry summary

_chemical_formula_structural             'Gd Pt~2~ Sn'
_chemical_formula_sum                    'Gd Pt2 Sn'
_chemical_name_mineral                   ?
_chemical_compound_source                ?
_chemical_name_structure_type            LiCu~2~Sn,hP8,194
_chemical_formula_weight                 666.1

# Bibliographic data

_publ_section_title
;
Crystal structure and magnetic properties of the ternary compounds Pt~2~GdSn and Pt~2~ErSn
;
_journal_coden_ASTM                      JCOMAH
_journal_name_full                       'J. Less-Common Met.'
_journal_year                            1984
_journal_volume                          102
_journal_page_first                      113
_journal_page_last                       117
_journal_language                        English
loop_
 _publ_author_name
 _publ_author_address
'De Mooij D.B.'
;
Philips Research Laboratory
Research Laboratory
Eindhoven
Netherlands
;
'Buschow K.H.J.'
;
Philips Research Laboratory
Research Laboratory
Eindhoven
Netherlands
;

# Standardized crystallographic data

_cell_length_a                           4.531
_cell_length_b                           4.531
_cell_length_c                           9.065
_cell_angle_alpha                        90
_cell_angle_beta                         90
_cell_angle_gamma                        120
_cell_volume                             161.2
_cell_formula_units_Z                    2
_space_group_IT_number                   194
_space_group_name_H-M_alt                'P 63/m m c'
loop_
 _space_group_symop_id
 _space_group_symop_operation_xyz
 1 'x, y, z'
 2 '-x+y, -x, 1/2-z'
 3 '-x+y, -x, z'
 4 '-x+y, y, 1/2-z'
 5 '-x+y, y, z'
 6 '-x, -x+y, -z'
 7 '-x, -x+y, 1/2+z'
 8 '-x, -y, -z'
 9 '-x, -y, 1/2+z'
 10 '-y, -x, 1/2-z'
 11 '-y, -x, z'
 12 '-y, x-y, 1/2-z'
 13 '-y, x-y, z'
 14 'x, x-y, 1/2-z'
 15 'x, x-y, z'
 16 'x, y, 1/2-z'
 17 'x-y, -y, -z'
 18 'x-y, -y, 1/2+z'
 19 'x-y, x, -z'
 20 'x-y, x, 1/2+z'
 21 'y, -x+y, -z'
 22 'y, -x+y, 1/2+z'
 23 'y, x, -z'
 24 'y, x, 1/2+z'
loop_
 _atom_type_symbol
 Pt
 Gd
 Sn
loop_
 _atom_site_label
 _atom_site_type_symbol
 _atom_site_symmetry_multiplicity
 _atom_site_Wyckoff_symbol
 _atom_site_fract_x
 _atom_site_fract_y
 _atom_site_fract_z
 _atom_site_occupancy
 Pt Pt 4 f 0.333333 0.666667 0.586 1
 Gd Gd 2 c 0.333333 0.666667 0.25 1
 Sn Sn 2 a 0 0 0 1


_exptl_crystal_colour                    ?
_exptl_crystal_density_meas              ?
_exptl_crystal_density_diffrn            13.73
_cell_measurement_temperature            ?
_cell_measurement_radiation              'X-rays, Cu Ka'
_cell_measurement_reflns_used            ?
_diffrn_ambient_temperature              ?
_diffrn_measurement_device               'automatic diffractometer'
_diffrn_measurement_device_type          'Philips PW1050'
_diffrn_radiation_type                   'X-rays, Cu Ka'
_diffrn_reflns_number                    ?
_exptl_absorpt_coefficient_mu            ?
_exptl_absorpt_correction_type           ?
_computing_structure_solution            'starting values from the literature'
_refine_ls_number_parameters             ?
_refine_ls_number_reflns                 ?
_refine_ls_R_factor_gt                   0.13
_refine_ls_wR_factor_gt                  ?
_pd_proc_ls_proof_R_factor               ?
_pd_proc_ls_proof_wR_factor              ?
_refine_ls_R_I_factor                    ?

# Published diffraction lines

loop_
 _refln_index_h
 _refln_index_k
 _refln_index_l
 _refln_d_spacing
 _refln_intensity_meas
 0 0 2 97.8 14.0
 1 0 0 113.2 30.0
 1 0 1 123.4 9.0
 1 0 2 150.4 14.0
 1 0 3 187.8 163.0
 1 1 0 198.8 158.0
 1 1 2 223.3 18.0
 2 0 0 231.3 20.0
 2 0 1 237.2 2.0
 2 0 2 253.2 4.0
 2 0 3 279.1 62.0
 0 0 6 306.7 5.0
 2 1 0 313 7.0
 2 1 1 317.3 1.0
 2 1 2 331.1 24.0
 2 1 3 353.3 77.0
 3 0 0 361 31.0
 3 0 2 377.9 20.0
 2 1 4 383.4 8.0
 1 0 7 387.7 2.0
 2 0 6 400.5 14.0
 2 2 0 428.4 17.0
 2 2 2 445 3.0
 3 1 2 467 29.0
 3 1 3 488 32.0
 3 0 6 511.7 20.0
 4 0 0 517.3 7.0
 4 0 1 521.5 14.0

# End of data set 539683


