##############################################################################
#                                                                            #
# Ge-N             # Ge3N4 ht                                      #  451330 #
#                                                                            #
##############################################################################
#                                                                            #
#                           Pearson's Crystal Data                           #
#      Crystal Structure Database for Inorganic Compounds (on DVD)           #
#                              Release 2017/18                               #
#                  Editors: Pierre Villars and Karin Cenzual                 #
#                                                                            #
#   Copyright (c) ASM International & Material Phases Data System (MPDS),    #
# Switzerland & National Institute for Materials Science (NIMS), Japan, 2017 #
#                   All rights reserved. Version 2017.08                     #
#                                                                            #
#   This copy of Pearson's Crystal Data is licensed to:                      #
#   University of Alberta, Chemistry Department, 1-5 Installations License         #
#                                                                            #
##############################################################################

data_451330
_audit_creation_date                     2017-12-01
_audit_creation_method
;
Pearson's Crystal Data browser
;
#_database_code_PCD                      451330

# Entry summary

_chemical_formula_structural             'Ge~3~ N~4~'
_chemical_formula_sum                    'Ge3 N4'
_chemical_name_mineral                   ?
_chemical_compound_source                ?
_chemical_name_structure_type            Si~3~N~4~,hP14,176
_chemical_formula_weight                 273.8

# Bibliographic data

_publ_section_title
'On the Crystal Structures of the Nitrides of Silicon and Germanium'          
_journal_coden_ASTM                      ACCRA9
_journal_name_full                       'Acta Crystallogr.'
_journal_year                            1958
_journal_volume                          11
_journal_page_first                      465
_journal_page_last                       468
_journal_language                        English
loop_
 _publ_author_name
 _publ_author_address
'Ruddlesden S.N.'
;
British Ceramic Research Association
Stoke-on-Trent
United Kingdom
;
'Popper P.'
;
British Ceramic Research Association
Stoke-on-Trent
United Kingdom
;

# Standardized crystallographic data

_cell_length_a                           8.038
_cell_length_b                           8.038
_cell_length_c                           3.074
_cell_angle_alpha                        90
_cell_angle_beta                         90
_cell_angle_gamma                        120
_cell_volume                             172
_cell_formula_units_Z                    2
_space_group_IT_number                   176
_space_group_name_H-M_alt                'P 63/m'
loop_
 _space_group_symop_id
 _space_group_symop_operation_xyz
 1 'x, y, z'
 2 '-x+y, -x, 1/2-z'
 3 '-x+y, -x, z'
 4 '-x, -y, -z'
 5 '-x, -y, 1/2+z'
 6 '-y, x-y, 1/2-z'
 7 '-y, x-y, z'
 8 'x, y, 1/2-z'
 9 'x-y, x, -z'
 10 'x-y, x, 1/2+z'
 11 'y, -x+y, -z'
 12 'y, -x+y, 1/2+z'

# Atomic positions taken from type-defining entry

loop_
 _atom_type_symbol
 Ge
 N
loop_
 _atom_site_label
 _atom_site_type_symbol
 _atom_site_symmetry_multiplicity
 _atom_site_Wyckoff_symbol
 _atom_site_fract_x
 _atom_site_fract_y
 _atom_site_fract_z
 _atom_site_occupancy
 Ge1 Ge 6 h 0.2323 0.4096 0.25 1
 N1 N 6 h 0.3337 0.0323 0.25 1
 N2 N 2 c 0.333333 0.666667 0.25 1


_exptl_crystal_colour                    ?
_exptl_crystal_density_meas              ?
_exptl_crystal_density_diffrn            5.29
_cell_measurement_temperature            ?
_cell_measurement_radiation              'X-rays, Co Ka'
_cell_measurement_reflns_used            ?
_diffrn_ambient_temperature              ?
_diffrn_measurement_device               film
_diffrn_measurement_device_type          ?
_diffrn_radiation_type                   ?
_diffrn_reflns_number                    ?
_exptl_absorpt_coefficient_mu            ?
_exptl_absorpt_correction_type           ?
_computing_structure_solution            ?
_refine_ls_number_parameters             ?
_refine_ls_number_reflns                 ?
_refine_ls_R_factor_gt                   ?
_refine_ls_wR_factor_gt                  ?

# Published diffraction lines

loop_
 _refln_index_h
 _refln_index_k
 _refln_index_l
 _refln_d_spacing
 _refln_intensity_meas
 1 0 0 69.5 5
 1 1 0 40.3 5
 2 0 0 34.8 7
 1 0 1 28.1 8
 2 1 0 26.2 8
 2 0 1 23.1 7
 2 2 0 20.1 2
 3 1 0 19.3 2
 3 0 1 18.5 7
 3 1 1 16.3 3
 3 2 0 15.9 3
 0 0 2 15.4 3
 4 1 0 15.14 3
 3 2 1 14.15 5
 2 0 2 14.06 1
 5 0 0 13.91 1
 4 1 1 13.59 4
 3 3 0 13.39 1
 2 1 2 13.24 4
 5 1 0 12.47 1
 2 2 2 12.18 3
 4 2 1 12.08 2
 3 1 2 11.99 1
 5 1 1 11.57 2
 4 3 0 11.43 2
 3 2 2 11.06 3
 4 1 2 10.8 3
 6 1 0 10.61 2
 5 2 1 10.47 2
 5 0 2 10.31 3
 3 3 2 10.09 1
 6 1 1 10.02 4
 2 0 3 9.85 3
 5 1 2 9.7 3
 6 2 0 9.66 3
 2 1 3 9.53 3
 7 0 1 9.46 1
 3 0 3 9.37 3
 7 1 0 9.22 4

# End of data set 451330


