##############################################################################
#                                                                            #
# Bi-Ge-O          # GeBi2O5 mon                                   #  376643 #
#                                                                            #
##############################################################################
#                                                                            #
#                           Pearson's Crystal Data                           #
#      Crystal Structure Database for Inorganic Compounds (on DVD)           #
#                              Release 2017/18                               #
#                  Editors: Pierre Villars and Karin Cenzual                 #
#                                                                            #
#   Copyright (c) ASM International & Material Phases Data System (MPDS),    #
# Switzerland & National Institute for Materials Science (NIMS), Japan, 2017 #
#                   All rights reserved. Version 2017.08                     #
#                                                                            #
#   This copy of Pearson's Crystal Data is licensed to:                      #
#   University of Alberta, Chemistry Department, 1-5 Installations License         #
#                                                                            #
##############################################################################

data_376643
_audit_creation_date                     2017-12-01
_audit_creation_method
;
Pearson's Crystal Data browser
;
#_database_code_PCD                      376643

# Entry summary

_chemical_formula_structural             'Ge Bi~2~ O~5~'
_chemical_formula_sum                    'Bi2 Ge O5'
_chemical_name_mineral                   ?
_chemical_compound_source                ?
_chemical_name_structure_type            GeBi~2~O~5~,mS32,9
_chemical_formula_weight                 570.5

# Bibliographic data

_publ_section_title
'X-Ray Structure Analysis of Bismuth Germanate Bi~2~GeO~5~'                   
_journal_coden_ASTM                      RJICAQ
_journal_name_full                       'Russ. J. Inorg. Chem.'
_journal_year                            1986
_journal_volume                          31
_journal_page_first                      795
_journal_page_last                       797
_journal_language                        English
loop_
 _publ_author_name
 _publ_author_address
'Shashkov A.Y.'
;
Karpov Institute of Physical Chemistry
Moscow
Russia
;
'Efremov V.A.'
;
Karpov Institute of Physical Chemistry
Moscow
Russia
;
'Bush A.A.'
;
Karpov Institute of Physical Chemistry
Moscow
Russia
;
'Rannev N.V.'
;
Karpov Institute of Physical Chemistry
Moscow
Russia
;
'Venevtsev Y.N.'
;
Russian Academy of Sciences
Karpov Institute of Physical Chemistry
Moscow
Russia
;
'Trunov V.K.'
;
Karpov Institute of Physical Chemistry
Moscow
Russia
;

# Standardized crystallographic data

_cell_length_a                           15.686
_cell_length_b                           5.493
_cell_length_c                           5.376
_cell_angle_alpha                        90
_cell_angle_beta                         90.01
_cell_angle_gamma                        90
_cell_volume                             463.2
_cell_formula_units_Z                    4
_space_group_IT_number                   9
_space_group_name_H-M_alt                'C 1 c 1'
loop_
 _space_group_symop_id
 _space_group_symop_operation_xyz
 1 'x, y, z'
 2 'x, -y, 1/2+z'
 3 '1/2+x, 1/2+y, z'
 4 '1/2+x, 1/2-y, 1/2+z'
loop_
 _atom_type_symbol
 O
 Ge
 Bi
loop_
 _atom_site_label
 _atom_site_type_symbol
 _atom_site_symmetry_multiplicity
 _atom_site_Wyckoff_symbol
 _atom_site_fract_x
 _atom_site_fract_y
 _atom_site_fract_z
 _atom_site_occupancy
 O3 O 4 a 0.0 0.167 0.0 1
 O5 O 4 a 0.089 0.435 0.352 1
 Ge Ge 4 a 0.097 0.3166 0.0488 1
 O4 O 4 a 0.188 0.163 0.003 1
 Bi1 Bi 4 a 0.2623 0.2189 0.579 1
 O1 O 4 a 0.345 0.001 0.34 1
 O2 O 4 a 0.364 0.503 0.327 1
 Bi2 Bi 4 a 0.4273 0.2818 0.0807 1


_exptl_crystal_colour                    yellow
_exptl_crystal_density_meas              ?
_exptl_crystal_density_diffrn            8.18
_cell_measurement_temperature            ?
_cell_measurement_radiation              'X-rays, Mo Ka'
_cell_measurement_reflns_used            25
_diffrn_ambient_temperature              ?
_diffrn_measurement_device               'automatic diffractometer'
_diffrn_measurement_device_type          'Nonius CAD4'
_diffrn_radiation_type                   'X-rays, Mo Ka'
_diffrn_reflns_number                    ?
_exptl_absorpt_coefficient_mu            ?
_exptl_absorpt_correction_type           spherical
_computing_structure_solution            'starting values from the literature'
_refine_ls_number_parameters             ?
_refine_ls_number_reflns                 1174
_refine_ls_R_factor_gt                   0.065
_refine_ls_wR_factor_gt                  0.080

# End of data set 376643


