##############################################################################
#                                                                            #
# Ge-S             # GeS2 ht                                       #  309208 #
#                                                                            #
##############################################################################
#                                                                            #
#                           Pearson's Crystal Data                           #
#      Crystal Structure Database for Inorganic Compounds (on DVD)           #
#                              Release 2017/18                               #
#                  Editors: Pierre Villars and Karin Cenzual                 #
#                                                                            #
#   Copyright (c) ASM International & Material Phases Data System (MPDS),    #
# Switzerland & National Institute for Materials Science (NIMS), Japan, 2017 #
#                   All rights reserved. Version 2017.08                     #
#                                                                            #
#   This copy of Pearson's Crystal Data is licensed to:                      #
#   University of Alberta, Chemistry Department, 1-5 Installations License         #
#                                                                            #
##############################################################################

data_309208
_audit_creation_date                     2017-12-01
_audit_creation_method
;
Pearson's Crystal Data browser
;
#_database_code_PCD                      309208

# Entry summary

_chemical_formula_structural             'Ge S~2~'
_chemical_formula_sum                    'Ge S2'
_chemical_name_mineral                   ?
_chemical_compound_source                ?
_chemical_name_structure_type            GeS~2~,mP48,14
_chemical_formula_weight                 136.7
_chemical_melting_point                  1103

# Bibliographic data

_publ_section_title
'Investigation of the system Ge-S-Se over the cross section GeS~2~-GeSe~2~'   
_journal_coden_ASTM                      INOMAF
_journal_name_full                       'Inorg. Mater.'
_journal_year                            1976
_journal_volume                          12
_journal_page_first                      1219
_journal_page_last                       1221
_journal_language                        English
loop_
 _publ_author_name
 _publ_author_address
'Karakhanova M.I.'
;
Moscow M.V. Lomonosov State University
Moscow
Russia
;
'Sokolova L.P.'
;
Moscow M.V. Lomonosov State University
Moscow
Russia
;
'Novoselova A.V.'
;
Moscow M.V. Lomonosov State University
Moscow
Russia
;
'Pashinkin A.S.'
;
Moscow M.V. Lomonosov State University
Moscow
Russia
;

# Standardized crystallographic data

_cell_length_a                           6.67
_cell_length_b                           16.12
_cell_length_c                           11.46
_cell_angle_alpha                        90
_cell_angle_beta                         90.8
_cell_angle_gamma                        90
_cell_volume                             1232.1
_cell_formula_units_Z                    16
_space_group_IT_number                   14
_space_group_name_H-M_alt                'P 1 21/c 1'
loop_
 _space_group_symop_id
 _space_group_symop_operation_xyz
 1 'x, y, z'
 2 '-x, -y, -z'
 3 '-x, 1/2+y, 1/2-z'
 4 'x, 1/2-y, 1/2+z'

# Atomic positions taken from type-defining entry

loop_
 _atom_type_symbol
 S
 Ge
loop_
 _atom_site_label
 _atom_site_type_symbol
 _atom_site_symmetry_multiplicity
 _atom_site_Wyckoff_symbol
 _atom_site_fract_x
 _atom_site_fract_y
 _atom_site_fract_z
 _atom_site_occupancy
 S1 S 4 e 0.0728 0.1681 0.1000 1
 Ge1 Ge 4 e 0.1570 0.3469 0.2787 1
 S2 S 4 e 0.1687 0.8227 0.2141 1
 Ge2 Ge 4 e 0.1734 0.6927 0.2777 1
 S3 S 4 e 0.1767 0.6091 0.1236 1
 S4 S 4 e 0.2210 0.4630 0.3774 1
 S5 S 4 e 0.2708 0.3874 0.1067 1
 S6 S 4 e 0.3274 0.2436 0.3631 1
 Ge3 Ge 4 e 0.3286 0.1514 0.2202 1
 S7 S 4 e 0.3339 0.0255 0.2989 1
 Ge4 Ge 4 e 0.3396 0.5026 0.2057 1
 S8 S 4 e 0.5789 0.1684 0.0980 1


_exptl_crystal_colour                    ?
_exptl_crystal_density_meas              ?
_exptl_crystal_density_diffrn            2.95
_cell_measurement_temperature            ?
_cell_measurement_radiation              'X-rays, Cu Ka'
_cell_measurement_reflns_used            ?
_diffrn_ambient_temperature              ?
_diffrn_measurement_device               'Guinier film'
_diffrn_measurement_device_type          ?
_diffrn_radiation_type                   ?
_diffrn_reflns_number                    ?
_exptl_absorpt_coefficient_mu            ?
_exptl_absorpt_correction_type           ?
_computing_structure_solution            ?
_refine_ls_number_parameters             ?
_refine_ls_number_reflns                 ?
_refine_ls_R_factor_gt                   ?
_refine_ls_wR_factor_gt                  ?

# End of data set 309208


