##############################################################################
#                                                                            #
# Ge-S             # GeS2 rt                                       # 1001696 #
#                                                                            #
##############################################################################
#                                                                            #
#                           Pearson's Crystal Data                           #
#      Crystal Structure Database for Inorganic Compounds (on DVD)           #
#                              Release 2017/18                               #
#                  Editors: Pierre Villars and Karin Cenzual                 #
#                                                                            #
#   Copyright (c) ASM International & Material Phases Data System (MPDS),    #
# Switzerland & National Institute for Materials Science (NIMS), Japan, 2017 #
#                   All rights reserved. Version 2017.08                     #
#                                                                            #
#   This copy of Pearson's Crystal Data is licensed to:                      #
#   University of Alberta, Chemistry Department, 1-5 Installations License         #
#                                                                            #
##############################################################################

data_1001696
_audit_creation_date                     2017-12-04
_audit_creation_method
;
Pearson's Crystal Data browser
;
#_database_code_PCD                      1001696

# Entry summary

_chemical_formula_structural             'Ge S~2~'
_chemical_formula_sum                    'Ge S2'
_chemical_name_mineral                   ?
_chemical_compound_source                ?
_chemical_name_structure_type            GeS~2~,mP36,7
_chemical_formula_weight                 136.7

# Bibliographic data

_publ_section_title                      'Polymorphism of germanium disulfide'
_journal_coden_ASTM                      SPHCA6
_journal_name_full                       'Sov. Phys. Crystallogr.'
_journal_year                            1987
_journal_volume                          32
_journal_page_first                      224
_journal_page_last                       229
_journal_language                        English
loop_
 _publ_author_name
 _publ_author_address
'Bletskan D.I.'
;
Uzhhorod State University
Uzhhorod
Ukraine
;
'Mitrovtsii L.M.'
;
Uzhhorod State University
Uzhhorod
Ukraine
;
'Stefanovich V.A.'
;
Uzhhorod State University
Uzhhorod
Ukraine
;
'Potorii M.V.'
;
Uzhhorod State University
Uzhhorod
Ukraine
;
'Voroshilov Y.V.'
;
Uzhhorod State University
Uzhhorod
Ukraine
;
'Slivka V.Y.'
;
Uzhhorod State University
Uzhhorod
Ukraine
;

# Standardized crystallographic data

_cell_length_a                           6.7895
_cell_length_b                           22.54
_cell_length_c                           6.874
_cell_angle_alpha                        90
_cell_angle_beta                         120.234
_cell_angle_gamma                        90
_cell_volume                             908.9
_cell_formula_units_Z                    12
_space_group_IT_number                   7
_space_group_name_H-M_alt                'P 1 c 1'
loop_
 _space_group_symop_id
 _space_group_symop_operation_xyz
 1 'x, y, z'
 2 'x, -y, 1/2+z'

# Atomic positions taken from type-defining entry

loop_
 _atom_type_symbol
 S
 Ge
loop_
 _atom_site_label
 _atom_site_type_symbol
 _atom_site_symmetry_multiplicity
 _atom_site_Wyckoff_symbol
 _atom_site_fract_x
 _atom_site_fract_y
 _atom_site_fract_z
 _atom_site_occupancy
 S1 S 2 a 0.0 0.3021 0.0 1
 S2 S 2 a 0.010 0.2540 0.532 1
 S3 S 2 a 0.051 0.1483 0.129 1
 S4 S 2 a 0.102 0.5519 0.395 1
 S5 S 2 a 0.119 0.0005 0.403 1
 Ge1 Ge 2 a 0.1394 0.2376 0.2965 1
 Ge2 Ge 2 a 0.2438 0.3752 0.1517 1
 S6 S 2 a 0.272 0.3944 0.483 1
 Ge3 Ge 2 a 0.3873 0.5131 0.0426 1
 S7 S 2 a 0.503 0.2464 0.525 1
 S8 S 2 a 0.506 0.2010 0.010 1
 S9 S 2 a 0.579 0.3559 0.169 1
 S10 S 2 a 0.596 0.0496 0.907 1
 S11 S 2 a 0.621 0.5075 0.402 1
 Ge4 Ge 2 a 0.6317 0.2625 0.2907 1
 S12 S 2 a 0.730 0.1024 0.456 1
 Ge5 Ge 2 a 0.7471 0.1251 0.1525 1
 Ge6 Ge 2 a 0.8830 0.0120 0.5400 1


_exptl_crystal_colour                    ?
_exptl_crystal_density_meas              ?
_exptl_crystal_density_diffrn            3.00
_cell_measurement_temperature            ?
_cell_measurement_radiation              'X-rays, Cu Ka'
_cell_measurement_reflns_used            ?
_diffrn_ambient_temperature              ?
_diffrn_measurement_device               'automatic diffractometer'
_diffrn_measurement_device_type          ?
_diffrn_radiation_type                   ?
_diffrn_reflns_number                    ?
_exptl_absorpt_coefficient_mu            ?
_exptl_absorpt_correction_type           ?
_computing_structure_solution            ?
_refine_ls_number_parameters             ?
_refine_ls_number_reflns                 ?
_refine_ls_R_factor_gt                   ?
_refine_ls_wR_factor_gt                  ?

# End of data set 1001696


