##############################################################################
#                                                                            #
# Ge-Se            # GeSe2 ht                                      #  451655 #
#                                                                            #
##############################################################################
#                                                                            #
#                           Pearson's Crystal Data                           #
#      Crystal Structure Database for Inorganic Compounds (on DVD)           #
#                              Release 2017/18                               #
#                  Editors: Pierre Villars and Karin Cenzual                 #
#                                                                            #
#   Copyright (c) ASM International & Material Phases Data System (MPDS),    #
# Switzerland & National Institute for Materials Science (NIMS), Japan, 2017 #
#                   All rights reserved. Version 2017.08                     #
#                                                                            #
#   This copy of Pearson's Crystal Data is licensed to:                      #
#   University of Alberta, Chemistry Department, 1-5 Installations License         #
#                                                                            #
##############################################################################

data_451655
_audit_creation_date                     2017-12-01
_audit_creation_method
;
Pearson's Crystal Data browser
;
#_database_code_PCD                      451655

# Entry summary

_chemical_formula_structural             'Ge Se~2~'
_chemical_formula_sum                    'Ge Se2'
_chemical_name_mineral                   ?
_chemical_compound_source                ?
_chemical_name_structure_type            GeS~2~,mP48,14
_chemical_formula_weight                 230.5

# Bibliographic data

_publ_section_title
'Die Kristallstruktur von Germaniumdiselenid'                                 
_journal_coden_ASTM                      ACBCAR
_journal_name_full                       'Acta Crystallogr. B'
_journal_year                            1976
_journal_volume                          32
_journal_page_first                      2726
_journal_page_last                       2728
_journal_language                        German
loop_
 _publ_author_name
 _publ_author_address
'Dittmar G.'
;
Darmstadt University of Technology
Eduard Zintl Institut
Darmstadt
Germany
;
'Sch\"afer H.'
;
Darmstadt University of Technology
Eduard Zintl Institut
Darmstadt
Germany
;

# Standardized crystallographic data

_cell_length_a                           7.016
_cell_length_b                           16.796
_cell_length_c                           11.831
_cell_angle_alpha                        90
_cell_angle_beta                         90.65
_cell_angle_gamma                        90
_cell_volume                             1394.08
_cell_formula_units_Z                    16
_space_group_IT_number                   14
_space_group_name_H-M_alt                'P 1 21/c 1'
loop_
 _space_group_symop_id
 _space_group_symop_operation_xyz
 1 'x, y, z'
 2 '-x, -y, -z'
 3 '-x, 1/2+y, 1/2-z'
 4 'x, 1/2-y, 1/2+z'
loop_
 _atom_type_symbol
 Se
 Ge
loop_
 _atom_site_label
 _atom_site_type_symbol
 _atom_site_symmetry_multiplicity
 _atom_site_Wyckoff_symbol
 _atom_site_fract_x
 _atom_site_fract_y
 _atom_site_fract_z
 _atom_site_occupancy
 Se(5) Se 4 e 0.0722 0.1698 0.0972 1
 Ge(1) Ge 4 e 0.1558 0.3463 0.2791 1
 Se(1) Se 4 e 0.1757 0.823 0.2095 1
 Ge(4) Ge 4 e 0.1752 0.691 0.2734 1
 Se(7) Se 4 e 0.1751 0.6074 0.1145 1
 Se(2) Se 4 e 0.2222 0.4643 0.3809 1
 Se(3) Se 4 e 0.2695 0.3844 0.0998 1
 Se(4) Se 4 e 0.3353 0.2441 0.3674 1
 Ge(2) Ge 4 e 0.3283 0.1494 0.2227 1
 Se(8) Se 4 e 0.3262 0.0221 0.3061 1
 Ge(3) Ge 4 e 0.3414 0.5008 0.2017 1
 Se(6) Se 4 e 0.5801 0.1627 0.0952 1


_exptl_crystal_colour                    yellow
_exptl_crystal_density_meas              4.37
_exptl_crystal_density_diffrn            4.39
_cell_measurement_temperature            ?
_cell_measurement_radiation              'X-rays, Mo Ka'
_cell_measurement_reflns_used            ?
_diffrn_ambient_temperature              ?
_diffrn_measurement_device               diffractometer
_diffrn_measurement_device_type          'STOE STADI 2'
_diffrn_radiation_type                   'X-rays, Mo Ka'
_diffrn_reflns_number                    3330
_exptl_absorpt_coefficient_mu            31.035
_exptl_absorpt_correction_type           yes
_computing_structure_solution            'starting values from the literature'
_refine_ls_number_parameters             ?
_refine_ls_number_reflns                 ?
_refine_ls_R_factor_gt                   0.095
_refine_ls_wR_factor_gt                  ?

# End of data set 451655


