##############################################################################
#                                                                            #
# H-O-S            # H2[SO4] lt                                    #  311373 #
#                                                                            #
##############################################################################
#                                                                            #
#                           Pearson's Crystal Data                           #
#      Crystal Structure Database for Inorganic Compounds (on DVD)           #
#                              Release 2017/18                               #
#                  Editors: Pierre Villars and Karin Cenzual                 #
#                                                                            #
#   Copyright (c) ASM International & Material Phases Data System (MPDS),    #
# Switzerland & National Institute for Materials Science (NIMS), Japan, 2017 #
#                   All rights reserved. Version 2017.08                     #
#                                                                            #
#   This copy of Pearson's Crystal Data is licensed to:                      #
#   University of Alberta, Chemistry Department, 1-5 Installations License         #
#                                                                            #
##############################################################################

data_311373
_audit_creation_date                     2017-12-01
_audit_creation_method
;
Pearson's Crystal Data browser
;
#_database_code_PCD                      311373

# Entry summary

_chemical_formula_structural             'H~2~ [S O~4~]'
_chemical_formula_sum                    'H2 O4 S'
_chemical_name_mineral                   ?
_chemical_compound_source                ?
_chemical_name_structure_type            H~2~[SO~4~],mS20,15
_chemical_formula_weight                 98.1

# Bibliographic data

_publ_section_title
'Neutron-diffraction study of polycrystalline H~2~SO~4~ and H~2~SeO~4~'       
_journal_coden_ASTM                      PRBMDO
_journal_name_full
'Phys. Rev. B: Condens. Matter Mater. Phys.'                                  
_journal_year                            1983
_journal_volume                          28
_journal_page_first                      3501
_journal_page_last                       3505
_journal_language                        English
loop_
 _publ_author_name
 _publ_author_address
'Moodenbaugh A.R.'
;
Brookhaven National Laboratory
Upton
U.S.A. New York
;
'Hartt J.E.'
;
Alfred University of SUNY (New York State University)
Fredonia
U.S.A. New York
;
'Hurst J.J.'
;
Brookhaven National Laboratory
Upton
U.S.A. New York
;
'Youngblood R.W.'
;
Brookhaven National Laboratory
Upton
U.S.A. New York
;
'Cox D.E.'
;
Brookhaven National Laboratory
Upton
U.S.A. New York
;
'Frazer B.C.'
;
Brookhaven National Laboratory
Upton
U.S.A. New York
;

# Standardized crystallographic data

_cell_length_a                           8.1824
_cell_length_b                           4.6549
_cell_length_c                           8.5015
_cell_angle_alpha                        90
_cell_angle_beta                         111.521
_cell_angle_gamma                        90
_cell_volume                             301.2
_cell_formula_units_Z                    4
_space_group_IT_number                   15
_space_group_name_H-M_alt                'C 1 2/c 1'
loop_
 _space_group_symop_id
 _space_group_symop_operation_xyz
 1 'x, y, z'
 2 '-x, -y, -z'
 3 '-x, y, 1/2-z'
 4 'x, -y, 1/2+z'
 5 '1/2+x, 1/2+y, z'
 6 '1/2-x, 1/2-y, -z'
 7 '1/2-x, 1/2+y, 1/2-z'
 8 '1/2+x, 1/2-y, 1/2+z'
loop_
 _atom_type_symbol
 O
 S
 H
loop_
 _atom_site_label
 _atom_site_type_symbol
 _atom_site_symmetry_multiplicity
 _atom_site_Wyckoff_symbol
 _atom_site_fract_x
 _atom_site_fract_y
 _atom_site_fract_z
 _atom_site_occupancy
 O1 O 8 f 0.02 0.268 0.113 1
 O2 O 8 f 0.341 0.409 0.178 1
 S S 4 e 0 0.092 0.25 1
 H H 8 f 0.133 0.327 0.135 1


_exptl_crystal_colour                    ?
_exptl_crystal_density_meas              ?
_exptl_crystal_density_diffrn            2.16
_cell_measurement_temperature            10
_cell_measurement_radiation              neutrons
_cell_measurement_wavelength             2.34
_pd_proc_wavelength                      2.34
_cell_measurement_reflns_used            ?
_diffrn_ambient_temperature              10
_diffrn_measurement_device               'automatic diffractometer'
_diffrn_measurement_device_type
'U.S.A. New York, Brookhaven National Laboratory, HFBR, H6M'                  
_diffrn_radiation_type                   neutrons
_diffrn_radiation_wavelength             2.34
_diffrn_reflns_number                    ?
_diffrn_reflns_theta_min                 10
_diffrn_reflns_theta_max                 60
_pd_proc_2theta_range_min                20
_pd_proc_2theta_range_max                120
_exptl_absorpt_coefficient_mu            ?
_exptl_absorpt_correction_type           ?
_computing_structure_solution            'starting values from the literature'
_refine_ls_number_parameters             ?
_refine_ls_number_reflns                 ?
_refine_ls_R_factor_gt                   ?
_refine_ls_wR_factor_gt                  ?
_pd_proc_ls_proof_R_factor               ?
_pd_proc_ls_proof_wR_factor              0.258
_refine_ls_R_I_factor                    0.140

# End of data set 311373


