##############################################################################
#                                                                            #
# H-O-S            # H2[SO4] lt                                    #  313515 #
#                                                                            #
##############################################################################
#                                                                            #
#                           Pearson's Crystal Data                           #
#      Crystal Structure Database for Inorganic Compounds (on DVD)           #
#                              Release 2017/18                               #
#                  Editors: Pierre Villars and Karin Cenzual                 #
#                                                                            #
#   Copyright (c) ASM International & Material Phases Data System (MPDS),    #
# Switzerland & National Institute for Materials Science (NIMS), Japan, 2017 #
#                   All rights reserved. Version 2017.08                     #
#                                                                            #
#   This copy of Pearson's Crystal Data is licensed to:                      #
#   University of Alberta, Chemistry Department, 1-5 Installations License         #
#                                                                            #
##############################################################################

data_313515
_audit_creation_date                     2017-12-01
_audit_creation_method
;
Pearson's Crystal Data browser
;
#_database_code_PCD                      313515

# Entry summary

_chemical_formula_structural             'H~2~ [S O~4~]'
_chemical_formula_sum                    'H2 O4 S'
_chemical_name_mineral                   ?
_chemical_compound_source                ?
_chemical_name_structure_type            H~2~[SO~4~],mS20,9
_chemical_formula_weight                 98.1

# Bibliographic data

_publ_section_title
;
Structure cristalline de l'acide sulfurique
;
_journal_coden_ASTM                      COREAF
_journal_name_full                       'C. R. Hebd. Seances Acad. Sci.'
_journal_year                            1955
_journal_volume                          240
_journal_page_first                      2162
_journal_page_last                       2164
_journal_language                        French
loop_
 _publ_author_name
 _publ_author_address
'Pascard R.'
;
Grenoble
France
;

# Standardized crystallographic data

_cell_length_a                           8.14
_cell_length_b                           4.7
_cell_length_c                           8.54
_cell_angle_alpha                        90
_cell_angle_beta                         111.42
_cell_angle_gamma                        90
_cell_volume                             304.2
_cell_formula_units_Z                    4
_space_group_IT_number                   9
_space_group_name_H-M_alt                'C 1 c 1'
loop_
 _space_group_symop_id
 _space_group_symop_operation_xyz
 1 'x, y, z'
 2 'x, -y, 1/2+z'
 3 '1/2+x, 1/2+y, z'
 4 '1/2+x, 1/2-y, 1/2+z'
loop_
 _atom_type_symbol
 O
 S
 OH
loop_
 _atom_site_label
 _atom_site_type_symbol
 _atom_site_symmetry_multiplicity
 _atom_site_Wyckoff_symbol
 _atom_site_fract_x
 _atom_site_fract_y
 _atom_site_fract_z
 _atom_site_occupancy
 O4 O 4 a 0.0 0.082 0.0 1
 S S 4 a 0.163 0.072 0.558 1
 O1 OH 4 a 0.18 0.275 0.421 1
 O2 O 4 a 0.318 0.082 0.15 1
 O3 OH 4 a 0.663 0.227 0.198 1


_exptl_crystal_colour                    ?
_exptl_crystal_density_meas              ?
_exptl_crystal_density_diffrn            2.14
_cell_measurement_temperature            ?
_cell_measurement_radiation              'X-rays, Cu Ka'
_cell_measurement_reflns_used            ?
_diffrn_ambient_temperature              ?
_diffrn_measurement_device               'Weissenberg photographs'
_diffrn_measurement_device_type          ?
_diffrn_radiation_type                   'X-rays, Cu Ka'
_diffrn_reflns_number                    ?
_exptl_absorpt_coefficient_mu            ?
_exptl_absorpt_correction_type           ?
_computing_structure_solution            'Patterson and Fourier synthesis'
_refine_ls_number_parameters             ?
_refine_ls_number_reflns                 ?
_refine_ls_R_factor_gt                   ?
_refine_ls_wR_factor_gt                  ?

# End of data set 313515


