##############################################################################
#                                                                            #
# Br-Ca-H-O-P      # H2Ca[PO4]Br[H2O]4                             # 1503354 #
#                                                                            #
##############################################################################
#                                                                            #
#                           Pearson's Crystal Data                           #
#      Crystal Structure Database for Inorganic Compounds (on DVD)           #
#                              Release 2017/18                               #
#                  Editors: Pierre Villars and Karin Cenzual                 #
#                                                                            #
#   Copyright (c) ASM International & Material Phases Data System (MPDS),    #
# Switzerland & National Institute for Materials Science (NIMS), Japan, 2017 #
#                   All rights reserved. Version 2017.08                     #
#                                                                            #
#   This copy of Pearson's Crystal Data is licensed to:                      #
#   University of Alberta, Chemistry Department, 1-5 Installations License         #
#                                                                            #
##############################################################################

data_1503354
_audit_creation_date                     2017-12-05
_audit_creation_method
;
Pearson's Crystal Data browser
;
#_database_code_PCD                      1503354

# Entry summary

_chemical_formula_structural             'H~2~ Ca [P O~4~] Br [H~2~ O]~4~'
_chemical_formula_sum                    'Br Ca H10 O8 P'
_chemical_name_mineral                   ?
_chemical_compound_source                ?
_chemical_name_structure_type            H~2~Ca[PO~4~]Br[H~2~O]~4~,mS44,15
_chemical_formula_weight                 289.0

# Bibliographic data

_publ_section_title                      'Planar Ca-PO~4~ sheet structures'
_journal_coden_ASTM                      ACACBN
_journal_name_full                       'Acta Crystallogr. A'
_journal_year                            1981
_journal_volume                          37
_journal_page_first                      C175c
_journal_page_last                       ?
_journal_language                        English
loop_
 _publ_author_name
 _publ_author_address
'Mathew M.'
;
American Dental Association Health Foundation
Research Unit
Washington
U.S.A. Washington D.C.
;
'Takagi S.'
;
American Dental Association Health Foundation
Research Unit
Washington
U.S.A. Washington D.C.
;
'Brown W.E.'
;
American Dental Association Health Foundation
Research Unit
Washington
U.S.A. Washington D.C.
;

# Standardized crystallographic data

_cell_length_a                           20.314
_cell_length_b                           6.558
_cell_length_c                           6.973
_cell_angle_alpha                        90
_cell_angle_beta                         90.02
_cell_angle_gamma                        90
_cell_volume                             928.9
_cell_formula_units_Z                    4
_space_group_IT_number                   15
_space_group_name_H-M_alt                'C 1 2/c 1'
loop_
 _space_group_symop_id
 _space_group_symop_operation_xyz
 1 'x, y, z'
 2 '-x, -y, -z'
 3 '-x, y, 1/2-z'
 4 'x, -y, 1/2+z'
 5 '1/2+x, 1/2+y, z'
 6 '1/2-x, 1/2-y, -z'
 7 '1/2-x, 1/2+y, 1/2-z'
 8 '1/2+x, 1/2-y, 1/2+z'

# Atomic positions taken from type-defining entry

loop_
 _atom_type_symbol
 O
 P
 Ca
 Br
loop_
 _atom_site_label
 _atom_site_type_symbol
 _atom_site_symmetry_multiplicity
 _atom_site_Wyckoff_symbol
 _atom_site_fract_x
 _atom_site_fract_y
 _atom_site_fract_z
 _atom_site_occupancy
 O1 O 8 f 0.0007 0.3009 0.4254 1
 O2 O 8 f 0.0575 0.0115 0.2533 1
 O3 O 8 f 0.1663 0.1655 0.4065 1
 O4 O 8 f 0.3833 0.0943 0.2708 1
 P1 P 4 e 0 0.1701 0.25 1
 Ca1 Ca 4 e 0 0.6425 0.25 1
 Br1 Br 4 c 0.25 0.25 0 1


_exptl_crystal_colour                    ?
_exptl_crystal_density_meas              ?
_exptl_crystal_density_diffrn            2.07
_cell_measurement_temperature            ?
_cell_measurement_radiation              X-rays
_cell_measurement_reflns_used            ?
_diffrn_ambient_temperature              ?
_diffrn_measurement_device               'automatic diffractometer'
_diffrn_measurement_device_type          ?
_diffrn_radiation_type                   ?
_diffrn_reflns_number                    ?
_exptl_absorpt_coefficient_mu            ?
_exptl_absorpt_correction_type           ?
_computing_structure_solution            ?
_refine_ls_number_parameters             ?
_refine_ls_number_reflns                 ?
_refine_ls_R_factor_gt                   ?
_refine_ls_wR_factor_gt                  ?

# End of data set 1503354


