##############################################################################
#                                                                            #
# Cs-H-O-P         # H2Cs[PO4] lt                                  #  558117 #
#                                                                            #
##############################################################################
#                                                                            #
#                           Pearson's Crystal Data                           #
#      Crystal Structure Database for Inorganic Compounds (on DVD)           #
#                              Release 2017/18                               #
#                  Editors: Pierre Villars and Karin Cenzual                 #
#                                                                            #
#   Copyright (c) ASM International & Material Phases Data System (MPDS),    #
# Switzerland & National Institute for Materials Science (NIMS), Japan, 2017 #
#                   All rights reserved. Version 2017.08                     #
#                                                                            #
#   This copy of Pearson's Crystal Data is licensed to:                      #
#   University of Alberta, Chemistry Department, 1-5 Installations License         #
#                                                                            #
##############################################################################

data_558117
_audit_creation_date                     2017-12-04
_audit_creation_method
;
Pearson's Crystal Data browser
;
#_database_code_PCD                      558117

# Entry summary

_chemical_formula_structural             'H~2~ Cs [P O~4~]'
_chemical_formula_sum                    'Cs H2 O4 P'
_chemical_name_mineral                   ?
_chemical_compound_source                ?
_chemical_name_structure_type            H~2~Cs[PO~4~],mP12,4
_chemical_formula_weight                 229.9

# Bibliographic data

_publ_section_title
'A Neutron Diffraction Study of the Ferroelectric Transition of CsH~2~PO~4~'  
_journal_coden_ASTM                      JUPSAU
_journal_name_full                       'J. Phys. Soc. Jpn.'
_journal_year                            1980
_journal_volume                          49
_journal_page_first                      304
_journal_page_last                       307
_journal_language                        English
loop_
 _publ_author_name
 _publ_author_address
'Iwata Y.'
;
Kumatori Osaka Kyoto University
Research Reactor Institute
Kumatori / Osaka
Japan
;
'Koyano N.'
;
Kumatori Osaka Kyoto University
Research Reactor Institute
Kumatori / Osaka
Japan
;
'Shibuya I.'
;
Kumatori Osaka Kyoto University
Research Reactor Institute
Kumatori / Osaka
Japan
;

# Standardized crystallographic data

_cell_length_a                           4.89
_cell_length_b                           6.32
_cell_length_c                           7.8538
_cell_angle_alpha                        90
_cell_angle_beta                         107.938
_cell_angle_gamma                        90
_cell_volume                             230.92
_cell_formula_units_Z                    2
_space_group_IT_number                   4
_space_group_name_H-M_alt                'P 1 21 1'
loop_
 _space_group_symop_id
 _space_group_symop_operation_xyz
 1 'x, y, z'
 2 '-x, 1/2+y, -z'
loop_
 _atom_type_symbol
 O
 P
 Cs
 H
loop_
 _atom_site_label
 _atom_site_type_symbol
 _atom_site_symmetry_multiplicity
 _atom_site_Wyckoff_symbol
 _atom_site_fract_x
 _atom_site_fract_y
 _atom_site_fract_z
 _atom_site_occupancy
 O2 O 2 a 0.0244 0.7103 0.6748 1
 O3 O 2 a 0.2082 0.4015 0.1237 1
 P P 2 a 0.2103 0.2138 0.2403 1
 O4 O 2 a 0.2161 0.0 0.1316 1
 Cs Cs 2 a 0.264 0.2034 0.7365 1
 O1 O 2 a 0.5018 0.2008 0.3965 1
 H2 H 2 a -0.0414 0.1035 -0.0262 1
 H1 H 2 a 0.6801 0.2102 0.3597 1


_exptl_crystal_colour                    ?
_exptl_crystal_density_meas              ?
_exptl_crystal_density_diffrn            3.31
_cell_measurement_temperature            83
_cell_measurement_radiation              neutrons
_cell_measurement_wavelength             1.004
_cell_measurement_reflns_used            ?
_diffrn_ambient_temperature              83
_diffrn_measurement_device               'automatic diffractometer'
_diffrn_measurement_device_type          ?
_diffrn_radiation_type                   neutrons
_diffrn_radiation_wavelength             1.004
_diffrn_reflns_number                    ?
_exptl_absorpt_coefficient_mu            ?
_exptl_absorpt_correction_type           ?
_computing_structure_solution            'starting values from the literature'
_refine_ls_number_parameters             ?
_refine_ls_number_reflns                 ?
_refine_ls_R_factor_gt                   0.05
_refine_ls_wR_factor_gt                  ?

# End of data set 558117


