##############################################################################
#                                                                            #
# Cs-H-O-P         # H2Cs[PO4] lt                                  #  382697 #
#                                                                            #
##############################################################################
#                                                                            #
#                           Pearson's Crystal Data                           #
#      Crystal Structure Database for Inorganic Compounds (on DVD)           #
#                              Release 2017/18                               #
#                  Editors: Pierre Villars and Karin Cenzual                 #
#                                                                            #
#   Copyright (c) ASM International & Material Phases Data System (MPDS),    #
# Switzerland & National Institute for Materials Science (NIMS), Japan, 2017 #
#                   All rights reserved. Version 2017.08                     #
#                                                                            #
#   This copy of Pearson's Crystal Data is licensed to:                      #
#   University of Alberta, Chemistry Department, 1-5 Installations License         #
#                                                                            #
##############################################################################

data_382697
_audit_creation_date                     2017-12-01
_audit_creation_method
;
Pearson's Crystal Data browser
;
#_database_code_PCD                      382697

# Entry summary

_chemical_formula_structural             'H~2~ Cs [P O~4~]'
_chemical_formula_sum                    'Cs H2 O4 P'
_chemical_name_mineral                   ?
_chemical_compound_source                ?
_chemical_name_structure_type            H~2~Cs[PO~4~],mP12,4
_chemical_formula_weight                 229.9

# Bibliographic data

_publ_section_title
'A Neutron Diffraction Study on the Deuteration Effect in CsH~2~PO~4~ Crystal'
_journal_coden_ASTM                      JUPSAU
_journal_name_full                       'J. Phys. Soc. Jpn.'
_journal_year                            1994
_journal_volume                          63
_journal_page_first                      4044
_journal_page_last                       4050
_journal_language                        English
loop_
 _publ_author_name
 _publ_author_address
'Iwata Y.'
;
Kumatori Osaka Kyoto University
Research Reactor Institute
Kumatori / Osaka
Japan
;
'Deguchi K.'
;
Fukuroi Shizuoka Institute of Science and Technology
Department of Materials Science
Fukuroi / Shizuoka
Japan
;
'Mitani S.'
;
Kumatori Osaka Kyoto University
Research Reactor Institute
Kumatori / Osaka
Japan
;
'Shibuya I.'
;
Kumatori Osaka Kyoto University
Research Reactor Institute
Kumatori / Osaka
Japan
;
'Onodera Y.'
;
Kawasaki Kanagawa Meiji University
Department of Physics
Kawasaki / Kanagawa
Japan
;
'Nakamura E.'
;
Hiroshima Higashihiroshima University
Department of Materials Science
Hiroshima / Higashihiroshima
Japan
;

# Standardized crystallographic data

_cell_length_a                           4.928
_cell_length_b                           6.256
_cell_length_c                           7.85
_cell_angle_alpha                        90
_cell_angle_beta                         108.073
_cell_angle_gamma                        90
_cell_volume                             230.07
_cell_formula_units_Z                    2
_space_group_IT_number                   4
_space_group_name_H-M_alt                'P 1 21 1'
loop_
 _space_group_symop_id
 _space_group_symop_operation_xyz
 1 'x, y, z'
 2 '-x, 1/2+y, -z'
loop_
 _atom_type_symbol
 O
 P
 Cs
 H
loop_
 _atom_site_label
 _atom_site_type_symbol
 _atom_site_symmetry_multiplicity
 _atom_site_Wyckoff_symbol
 _atom_site_fract_x
 _atom_site_fract_y
 _atom_site_fract_z
 _atom_site_occupancy
 O(2) O 2 a 0.0245 0.7068 0.6746 1
 O(3) O 2 a 0.2095 0.402 0.1206 1
 P P 2 a 0.211 0.2144 0.2405 1
 O(4) O 2 a 0.2144 0.0 0.135 1
 Cs Cs 2 a 0.2637 0.2006 0.7368 1
 O(1) O 2 a 0.5015 0.2017 0.396 1
 H(1) H 2 a 0.0398 -0.0367 0.0269 1
 H(2) H 2 a 0.6797 0.2083 0.3592 1


_exptl_crystal_colour                    ?
_exptl_crystal_density_meas              ?
_exptl_crystal_density_diffrn            3.32
_cell_measurement_temperature            80
_cell_measurement_radiation              neutrons
_cell_measurement_reflns_used            ?
_diffrn_ambient_temperature              80
_diffrn_measurement_device               'automatic diffractometer'
_diffrn_measurement_device_type
'Japan, Kyoto, Research Reactor Institute, KUR-1 reactor'                     
_diffrn_radiation_type                   neutrons
_diffrn_reflns_number                    ?
_exptl_absorpt_coefficient_mu            ?
_exptl_absorpt_correction_type           ?
_computing_structure_solution            'starting values from the literature'
_refine_ls_number_parameters             ?
_refine_ls_number_reflns                 ?
_refine_ls_R_factor_gt                   0.079
_refine_ls_wR_factor_gt                  ?

# End of data set 382697


