##############################################################################
#                                                                            #
# Cs-H-O-P         # H2Cs[PO4] rt                                  #  375157 #
#                                                                            #
##############################################################################
#                                                                            #
#                           Pearson's Crystal Data                           #
#      Crystal Structure Database for Inorganic Compounds (on DVD)           #
#                              Release 2017/18                               #
#                  Editors: Pierre Villars and Karin Cenzual                 #
#                                                                            #
#   Copyright (c) ASM International & Material Phases Data System (MPDS),    #
# Switzerland & National Institute for Materials Science (NIMS), Japan, 2017 #
#                   All rights reserved. Version 2017.08                     #
#                                                                            #
#   This copy of Pearson's Crystal Data is licensed to:                      #
#   University of Alberta, Chemistry Department, 1-5 Installations License         #
#                                                                            #
##############################################################################

data_375157
_audit_creation_date                     2017-12-01
_audit_creation_method
;
Pearson's Crystal Data browser
;
#_database_code_PCD                      375157

# Entry summary

_chemical_formula_structural             'H~2~ Cs [P O~4~]'
_chemical_formula_sum                    'Cs O4 P'
_chemical_name_mineral                   ?
_chemical_compound_source                ?
_chemical_name_structure_type            H~2~Cs[PO~4~],mP12,11
_chemical_formula_weight                 229.9

# Bibliographic data

_publ_section_title
;
Crystal Structure and Ferroelectricity of Cesium Dihydrogen Phosphate CsH~2~PO~4~
;
_journal_coden_ASTM                      PSSABA
_journal_name_full                       'Phys. Status Solidi A'
_journal_year                            1976
_journal_volume                          34
_journal_page_first                      475
_journal_page_last                       481
_journal_language                        English
loop_
 _publ_author_name
 _publ_author_address
'Uesu Y.'
;
Tokyo Waseda University
Department of Physics
Tokyo / Tokyo
Japan
;
'Kobayashi J.'
;
Tokyo Waseda University
Department of Applied Physics
Tokyo / Tokyo
Japan
;

# Standardized crystallographic data

_cell_length_a                           4.8725
_cell_length_b                           6.3689
_cell_length_c                           7.9007
_cell_angle_alpha                        90
_cell_angle_beta                         107.742
_cell_angle_gamma                        90
_cell_volume                             233.5
_cell_formula_units_Z                    2
_space_group_IT_number                   11
_space_group_name_H-M_alt                'P 1 21/m 1'
loop_
 _space_group_symop_id
 _space_group_symop_operation_xyz
 1 'x, y, z'
 2 '-x, -y, -z'
 3 '-x, 1/2+y, -z'
 4 'x, 1/2-y, z'
loop_
 _atom_type_symbol
 O
 Cs
 P
loop_
 _atom_site_label
 _atom_site_type_symbol
 _atom_site_symmetry_multiplicity
 _atom_site_Wyckoff_symbol
 _atom_site_fract_x
 _atom_site_fract_y
 _atom_site_fract_z
 _atom_site_occupancy
 O3 O 4 f 0.5845 0.0524 0.3768 1
 Cs Cs 2 e 0.0357 0.25 0.7659 1
 O2 O 2 e 0.1587 0.25 0.1744 1
 P P 2 e 0.4692 0.25 0.2658 1
 O1 O 2 e 0.61 0.25 0.1065 1


_exptl_crystal_colour                    ?
_exptl_crystal_density_meas              3.20
_exptl_crystal_density_diffrn            3.27
_cell_measurement_temperature            ?
_cell_measurement_radiation              'X-rays, Mo Ka'
_cell_measurement_reflns_used            ?
_diffrn_ambient_temperature              ?
_diffrn_measurement_device               'automatic diffractometer'
_diffrn_measurement_device_type          Rigaku
_diffrn_radiation_type                   'X-rays, Mo Ka'
_diffrn_reflns_number                    ?
_exptl_absorpt_coefficient_mu            ?
_exptl_absorpt_correction_type           ?
_computing_structure_solution            'Patterson and Fourier synthesis'
_refine_ls_number_parameters             ?
_refine_ls_number_reflns                 ?
_refine_ls_R_factor_gt                   0.115
_refine_ls_wR_factor_gt                  ?

# End of data set 375157


