##############################################################################
#                                                                            #
# H-K-O-P          # H2K[PO4] mon1                                 # 1101080 #
#                                                                            #
##############################################################################
#                                                                            #
#                           Pearson's Crystal Data                           #
#      Crystal Structure Database for Inorganic Compounds (on DVD)           #
#                              Release 2017/18                               #
#                  Editors: Pierre Villars and Karin Cenzual                 #
#                                                                            #
#   Copyright (c) ASM International & Material Phases Data System (MPDS),    #
# Switzerland & National Institute for Materials Science (NIMS), Japan, 2017 #
#                   All rights reserved. Version 2017.08                     #
#                                                                            #
#   This copy of Pearson's Crystal Data is licensed to:                      #
#   University of Alberta, Chemistry Department, 1-5 Installations License         #
#                                                                            #
##############################################################################

data_1101080
_audit_creation_date                     2017-12-04
_audit_creation_method
;
Pearson's Crystal Data browser
;
#_database_code_PCD                      1101080

# Entry summary

_chemical_formula_structural             'H~2~ K [P O~4~]'
_chemical_formula_sum                    'H2 K O4 P'
_chemical_name_mineral                   ?
_chemical_compound_source                ?
_chemical_name_structure_type            H~2~K[PO~4~],mP24,13
_chemical_formula_weight                 136.1

# Bibliographic data

_publ_section_title
;
Crystal structure of a new monoclinic form of potassium dihydrogen phosphate containing orthophosphacidium ion, [H~4~PO~4~]^1+^
;
_journal_coden_ASTM                      JSSCBI
_journal_name_full                       'J. Solid State Chem.'
_journal_year                            1995
_journal_volume                          114
_journal_page_first                      219
_journal_page_last                       223
_journal_language                        English
loop_
 _publ_author_name
 _publ_author_address
'Mathew M.'
;
American Dental Association Health Foundation
Paffenbarger Research Center
Gaithersburg
U.S.A. Maryland
;
'Wong Ng W.'
;
National Institute of Standards and Technology (NIST)
Ceramics Division
Gaithersburg
U.S.A. Maryland
;

# Standardized crystallographic data

_cell_length_a                           7.4399
_cell_length_b                           7.2634
_cell_length_c                           9.3629
_cell_angle_alpha                        90
_cell_angle_beta                         127.696
_cell_angle_gamma                        90
_cell_volume                             400.3
_cell_formula_units_Z                    4
_space_group_IT_number                   13
_space_group_name_H-M_alt                'P 1 2/c 1'
loop_
 _space_group_symop_id
 _space_group_symop_operation_xyz
 1 'x, y, z'
 2 '-x, -y, -z'
 3 '-x, y, 1/2-z'
 4 'x, -y, 1/2+z'
loop_
 _atom_type_symbol
 O
 P
 K
 H
loop_
 _atom_site_label
 _atom_site_type_symbol
 _atom_site_symmetry_multiplicity
 _atom_site_Wyckoff_symbol
 _atom_site_fract_x
 _atom_site_fract_y
 _atom_site_fract_z
 _atom_site_occupancy
 O2 O 4 g 0.0405 0.3014 0.6299 1
 O1 O 4 g 0.2252 0.4479 0.3856 1
 O4 O 4 g 0.3018 0.2298 0.206 1
 O3 O 4 g 0.4182 0.0144 0.5872 1
 P2 P 2 f 0.5 0.1127 0.25 1
 K2 K 2 f 0.5 0.6305 0.25 1
 K1 K 2 e 0 0.0544 0.25 1
 P1 P 2 e 0 0.5721 0.25 1
 H2 H 4 g 0.059 0.712 0.477 1
 H1 H 4 g 0.191 0.38 0.286 1


_exptl_crystal_colour                    ?
_exptl_crystal_density_meas              2.25
_exptl_crystal_density_diffrn            2.26
_cell_measurement_temperature            293
_cell_measurement_radiation              'X-rays, Mo Ka'
_cell_measurement_wavelength             0.7107
_cell_measurement_reflns_used            25
_diffrn_ambient_temperature              293
_diffrn_measurement_device               'automatic diffractometer'
_diffrn_measurement_device_type          'Enraf-Nonius CAD4'
_diffrn_radiation_type                   'X-rays, Mo Ka'
_diffrn_radiation_wavelength             0.7107
_diffrn_reflns_number                    1741
_exptl_absorpt_coefficient_mu            1.79
_exptl_absorpt_correction_type           empirical
_computing_structure_solution            'Patterson and Fourier synthesis'
_refine_ls_number_parameters             ?
_refine_ls_number_reflns                 740
_refine_ls_R_factor_gt                   0.022
_refine_ls_wR_factor_gt                  0.038

# End of data set 1101080


