##############################################################################
#                                                                            #
# As-F-Ga-H-K-O    # H2KGa[AsO4]F3                                 # 1530355 #
#                                                                            #
##############################################################################
#                                                                            #
#                           Pearson's Crystal Data                           #
#      Crystal Structure Database for Inorganic Compounds (on DVD)           #
#                              Release 2017/18                               #
#                  Editors: Pierre Villars and Karin Cenzual                 #
#                                                                            #
#   Copyright (c) ASM International & Material Phases Data System (MPDS),    #
# Switzerland & National Institute for Materials Science (NIMS), Japan, 2017 #
#                   All rights reserved. Version 2017.08                     #
#                                                                            #
#   This copy of Pearson's Crystal Data is licensed to:                      #
#   University of Alberta, Chemistry Department, 1-5 Installations License         #
#                                                                            #
##############################################################################

data_1530355
_audit_creation_date                     2017-12-05
_audit_creation_method
;
Pearson's Crystal Data browser
;
#_database_code_PCD                      1530355

# Entry summary

_chemical_formula_structural             'H~2~ K Ga [As O~4~] F~3~'
_chemical_formula_sum                    'As F3 Ga H2 K O4'
_chemical_name_mineral                   ?
_chemical_compound_source                ?
_chemical_name_structure_type            H~2~KGa[AsO~4~]F~3~,mP40,13
_chemical_formula_weight                 306.7

# Bibliographic data

_publ_section_title                      'Gallium fluoroarsenates'
_journal_coden_ASTM                      DTARAF
_journal_name_full                       'Dalton Trans.'
_journal_year                            2015
_journal_volume                          44
_journal_page_first                      12804
_journal_page_last                       12811
_journal_language                        English
loop_
 _publ_author_name
 _publ_author_address
'Marshall K.L.'
;
Bath University
Department of Chemistry
Bath
United Kingdom
;
'Armstrong J.A.'
;
Southampton University
School of Chemistry
Southampton
United Kingdom
;
'Weller M.T.'
;
Bath University
Department of Chemistry
Bath
United Kingdom
;

# Standardized crystallographic data

_cell_length_a                           7.1901
_cell_length_b                           7.7981
_cell_length_c                           11.7397
_cell_angle_alpha                        90
_cell_angle_beta                         114.519
_cell_angle_gamma                        90
_cell_volume                             598.9
_cell_formula_units_Z                    4
_space_group_IT_number                   13
_space_group_name_H-M_alt                'P 1 2/c 1'
loop_
 _space_group_symop_id
 _space_group_symop_operation_xyz
 1 'x, y, z'
 2 '-x, -y, -z'
 3 '-x, y, 1/2-z'
 4 'x, -y, 1/2+z'
loop_
 _atom_type_symbol
 F
 O
 As
 OH
 K
 Ga
loop_
 _atom_site_label
 _atom_site_type_symbol
 _atom_site_symmetry_multiplicity
 _atom_site_Wyckoff_symbol
 _atom_site_fract_x
 _atom_site_fract_y
 _atom_site_fract_z
 _atom_site_occupancy
 F3 F 4 g 0.0783 0.4292 0.1611 1
 F1 F 4 g 0.0843 0.0824 0.1706 1
 O1 O 4 g 0.1511 0.2032 0.5742 1
 O2 O 4 g 0.2752 0.257 0.3801 1
 As1 As 4 g 0.32104 0.29095 0.52921 1
 O4 OH 4 g 0.3385 0.4973 0.0676 1
 O3 OH 4 g 0.557 0.2064 0.6176 1
 F2 F 4 g 0.7641 0.1012 0.5032 1
 K1 K 2 f 0.5 0.1315 0.25 1
 Ga1 Ga 2 e 0 0.26776 0.25 1
 K2 K 2 e 0 0.72707 0.25 1
 Ga2 Ga 2 a 0 0 0 1


_exptl_crystal_colour                    colorless
_exptl_crystal_density_meas              ?
_exptl_crystal_density_diffrn            3.40
_cell_measurement_temperature            120(2)
_cell_measurement_radiation              'X-rays, Mo Ka'
_cell_measurement_wavelength             0.71073
_cell_measurement_reflns_used            7752
_diffrn_ambient_temperature              120(2)
_diffrn_measurement_device               'automatic diffractometer'
_diffrn_measurement_device_type          'Bruker-Nonius APEX II'
_diffrn_radiation_type                   'X-rays, Mo Ka'
_diffrn_radiation_wavelength             0.71073
_diffrn_reflns_number                    7796
_diffrn_reflns_theta_min                 3.114
_diffrn_reflns_theta_max                 27.537
_exptl_absorpt_coefficient_mu            10.79
_exptl_absorpt_correction_type           yes
_computing_structure_solution            'direct methods, Fourier synthesis'
_refine_ls_number_parameters             94
_refine_ls_number_reflns                 1269
_refine_ls_R_factor_gt                   0.0331
_refine_ls_wR_factor_gt                  0.0910

# End of data set 1530355


