##############################################################################
#                                                                            #
# H-Mg-O-S         # H2Mg[SO4]2                                    # 1000060 #
#                                                                            #
##############################################################################
#                                                                            #
#                           Pearson's Crystal Data                           #
#      Crystal Structure Database for Inorganic Compounds (on DVD)           #
#                              Release 2017/18                               #
#                  Editors: Pierre Villars and Karin Cenzual                 #
#                                                                            #
#   Copyright (c) ASM International & Material Phases Data System (MPDS),    #
# Switzerland & National Institute for Materials Science (NIMS), Japan, 2017 #
#                   All rights reserved. Version 2017.08                     #
#                                                                            #
#   This copy of Pearson's Crystal Data is licensed to:                      #
#   University of Alberta, Chemistry Department, 1-5 Installations License         #
#                                                                            #
##############################################################################

data_1000060
_audit_creation_date                     2017-12-04
_audit_creation_method
;
Pearson's Crystal Data browser
;
#_database_code_PCD                      1000060

# Entry summary

_chemical_formula_structural             'H~2~ Mg [S O~4~]~2~'
_chemical_formula_sum                    'H2 Mg O8 S2'
_chemical_name_mineral                   ?
_chemical_compound_source                ?
_chemical_name_structure_type            H~2~Mg[SO~4~]~2~,mP22,14
_chemical_formula_weight                 218.4

# Bibliographic data

_publ_section_title                      'Crystal structure of Mg(HSO~4~)~2~'
_journal_coden_ASTM                      SPHCA6
_journal_name_full                       'Sov. Phys. Crystallogr.'
_journal_year                            1986
_journal_volume                          31
_journal_page_first                      721
_journal_page_last                       722
_journal_language                        English
loop_
 _publ_author_name
 _publ_author_address
'Simonov M.A.'
;
Moscow M.V. Lomonosov State University
Moscow
Russia
;
'Troyanov S.I.'
;
Moscow M.V. Lomonosov State University
Moscow
Russia
;
'Kemnitz E.'
;
Moscow M.V. Lomonosov State University
Moscow
Russia
;
'Hass D.'
;
Moscow M.V. Lomonosov State University
Moscow
Russia
;
'Kammler M.'
;
Moscow M.V. Lomonosov State University
Moscow
Russia
;

# Standardized crystallographic data

_cell_length_a                           4.94
_cell_length_b                           8.273
_cell_length_c                           8.0796
_cell_angle_alpha                        90
_cell_angle_beta                         117.135
_cell_angle_gamma                        90
_cell_volume                             293.9
_cell_formula_units_Z                    2
_space_group_IT_number                   14
_space_group_name_H-M_alt                'P 1 21/c 1'
loop_
 _space_group_symop_id
 _space_group_symop_operation_xyz
 1 'x, y, z'
 2 '-x, -y, -z'
 3 '-x, 1/2+y, 1/2-z'
 4 'x, 1/2-y, 1/2+z'
loop_
 _atom_type_symbol
 O
 S
 Mg
 H
loop_
 _atom_site_label
 _atom_site_type_symbol
 _atom_site_symmetry_multiplicity
 _atom_site_Wyckoff_symbol
 _atom_site_fract_x
 _atom_site_fract_y
 _atom_site_fract_z
 _atom_site_occupancy
 O4 O 4 e 0.0911 0.3902 0.3026 1
 O1 O 4 e 0.2794 0.1599 0.2045 1
 O3 O 4 e 0.3147 0.4192 0.0934 1
 S S 4 e 0.33002 0.32728 0.26544 1
 O2 O 4 e 0.6305 0.3491 0.4191 1
 Mg Mg 2 a 0 0 0 1
 H H 4 e 0.357 0.5 0.11 1


_exptl_crystal_colour                    colorless
_exptl_crystal_density_meas              ?
_exptl_crystal_density_diffrn            2.47
_cell_measurement_temperature            ?
_cell_measurement_radiation              'X-rays, Mo Ka'
_cell_measurement_reflns_used            ?
_diffrn_ambient_temperature              ?
_diffrn_measurement_device               'automatic diffractometer'
_diffrn_measurement_device_type          'Syntex P1'
_diffrn_radiation_type                   'X-rays, Mo Ka'
_diffrn_reflns_number                    ?
_exptl_absorpt_coefficient_mu            ?
_exptl_absorpt_correction_type           ?
_computing_structure_solution            'Patterson and Fourier synthesis'
_refine_ls_number_parameters             ?
_refine_ls_number_reflns                 2527
_refine_ls_R_factor_gt                   0.029
_refine_ls_wR_factor_gt                  ?

# End of data set 1000060


