##############################################################################
#                                                                            #
# As-H-O-Sn        # H2Sn[AsO4]2[H2O]                              #  305683 #
#                                                                            #
##############################################################################
#                                                                            #
#                           Pearson's Crystal Data                           #
#      Crystal Structure Database for Inorganic Compounds (on DVD)           #
#                              Release 2017/18                               #
#                  Editors: Pierre Villars and Karin Cenzual                 #
#                                                                            #
#   Copyright (c) ASM International & Material Phases Data System (MPDS),    #
# Switzerland & National Institute for Materials Science (NIMS), Japan, 2017 #
#                   All rights reserved. Version 2017.08                     #
#                                                                            #
#   This copy of Pearson's Crystal Data is licensed to:                      #
#   University of Alberta, Chemistry Department, 1-5 Installations License         #
#                                                                            #
##############################################################################

data_305683
_audit_creation_date                     2017-12-01
_audit_creation_method
;
Pearson's Crystal Data browser
;
#_database_code_PCD                      305683

# Entry summary

_chemical_formula_structural             'H~2~ Sn [As O~4~]~2~ [H~2~ O]'
_chemical_formula_sum                    'As2 H4 O9 Sn'
_chemical_name_mineral                   ?
_chemical_compound_source                ?
_chemical_name_structure_type            H~2~Zr[PO~4~]~2~[H~2~O],mP48,14
_chemical_formula_weight                 416.6

# Bibliographic data

_publ_section_title
;
Products of the Thermal Decomposition of Tin(IV) Monohydrogen Arsenate Monohydrate
;
_journal_coden_ASTM                      RJICAQ
_journal_name_full                       'Russ. J. Inorg. Chem.'
_journal_year                            1976
_journal_volume                          21
_journal_page_first                      1574
_journal_page_last                       1576
_journal_language                        English
loop_
 _publ_author_name
 _publ_author_address
'Chernorukov N.G.'
;
Nizhnii Novgorod N.I. Lobachevskii State University
Nizhnii Novgorod
Russia
;
'Sibrina G.F.'
;
Ekaterinburg Ural Gorky State University
Ekaterinburg
Russia
;
'Moskvichev E.P.'
;
Ekaterinburg Ural Gorky State University
Ekaterinburg
Russia
;

# Standardized crystallographic data

_cell_length_a                           8.83
_cell_length_b                           5.08
_cell_length_c                           16.97
_cell_angle_alpha                        90
_cell_angle_beta                         110.9
_cell_angle_gamma                        90
_cell_volume                             711.1
_cell_formula_units_Z                    4
_space_group_IT_number                   14
_space_group_name_H-M_alt                'P 1 21/c 1'
loop_
 _space_group_symop_id
 _space_group_symop_operation_xyz
 1 'x, y, z'
 2 '-x, -y, -z'
 3 '-x, 1/2+y, 1/2-z'
 4 'x, 1/2-y, 1/2+z'

# Atomic positions taken from type-defining entry

loop_
 _atom_type_symbol
 As
 O
 Sn
loop_
 _atom_site_label
 _atom_site_type_symbol
 _atom_site_symmetry_multiplicity
 _atom_site_Wyckoff_symbol
 _atom_site_fract_x
 _atom_site_fract_y
 _atom_site_fract_z
 _atom_site_occupancy
 As1 As 4 e 0.00231 0.2491 0.11411 1
 O1 O 4 e 0.065 0.0132 0.4025 1
 O2 O 4 e 0.1046 0.2284 0.2151 1
 O3 O 4 e 0.106 0.1925 0.0609 1
 O4 O 4 e 0.125 0.5485 0.404 1
 Sn1 Sn 4 e 0.23949 0.2463 0.48535 1
 O5 O 4 e 0.3418 0.5583 0.0621 1
 O6 O 4 e 0.3757 0.1936 0.4091 1
 O7 O 4 e 0.4158 0.0229 0.0657 1
 O8 O 4 e 0.4891 0.2569 0.2948 1
 As2 As 4 e 0.53006 0.2543 0.39756 1
 O9 O 4 e 0.7411 0.284 0.24 1


_exptl_crystal_colour                    ?
_exptl_crystal_density_meas              3.76
_exptl_crystal_density_diffrn            3.89
_cell_measurement_temperature            ?
_cell_measurement_radiation              'X-rays, Cu Ka'
_cell_measurement_reflns_used            ?
_diffrn_ambient_temperature              ?
_diffrn_measurement_device               film
_diffrn_measurement_device_type          ?
_diffrn_radiation_type                   ?
_diffrn_reflns_number                    ?
_exptl_absorpt_coefficient_mu            ?
_exptl_absorpt_correction_type           ?
_computing_structure_solution            ?
_refine_ls_number_parameters             ?
_refine_ls_number_reflns                 ?
_refine_ls_R_factor_gt                   ?
_refine_ls_wR_factor_gt                  ?

# Published diffraction lines

loop_
 _refln_index_h
 _refln_index_k
 _refln_index_l
 _refln_d_spacing
 _refln_intensity_meas
 0 0 2 78.8 65
 1 1 0 43 21
 0 0 4 41 5
 1 1 2 35 100
 2 0 2 31.9 6
 0 2 0 26.5 26
 0 0 6 25.3 40
 2 0 4 24.4 29
 2 2 2 20.6 15
 0 0 8 19.2 22
 4 0 0 18.3 6
 0 0 10 15.5 12

# End of data set 305683


