##############################################################################
#                                                                            #
# As-H-O-Sn        # H2Sn[AsO4]2[H2O]                              #  557339 #
#                                                                            #
##############################################################################
#                                                                            #
#                           Pearson's Crystal Data                           #
#      Crystal Structure Database for Inorganic Compounds (on DVD)           #
#                              Release 2017/18                               #
#                  Editors: Pierre Villars and Karin Cenzual                 #
#                                                                            #
#   Copyright (c) ASM International & Material Phases Data System (MPDS),    #
# Switzerland & National Institute for Materials Science (NIMS), Japan, 2017 #
#                   All rights reserved. Version 2017.08                     #
#                                                                            #
#   This copy of Pearson's Crystal Data is licensed to:                      #
#   University of Alberta, Chemistry Department, 1-5 Installations License         #
#                                                                            #
##############################################################################

data_557339
_audit_creation_date                     2017-12-04
_audit_creation_method
;
Pearson's Crystal Data browser
;
#_database_code_PCD                      557339

# Entry summary

_chemical_formula_structural             'H~2~ Sn [As O~4~]~2~ [H~2~ O]'
_chemical_formula_sum                    'As2 H4 O9 Sn'
_chemical_name_mineral                   ?
_chemical_compound_source                ?
_chemical_name_structure_type            H~2~Zr[PO~4~]~2~[H~2~O],mP48,14
_chemical_formula_weight                 416.6

# Bibliographic data

_publ_section_title
;
Sur les ars\'eniates d'\'etain(IV). I. Pr\'eparation de compos\'es cristallis\'es. Etude des hydrog\'enoars\'eniates \'echangeurs de cations: H~2~[Sn(AsO~4~)~2~].H~2~O et H~2~[Sn(AsO~4~)~2~].0.5H~2~O
;
_journal_coden_ASTM                      BSCFAS
_journal_name_full                       'Bull. Soc. Chim. Fr.'
_journal_year                            1974
_journal_volume                          ?
_journal_page_first                      2335
_journal_page_last                       2339
_journal_language                        French
loop_
 _publ_author_name
 _publ_author_address
'Demaret A.'
;
Orsay Paris Sud XI University
Laboratoire de Chimie des Gaz et des Combustibles
Orsay
France
;
'D'Yvoire F.'
;
Orsay Paris Sud XI University
Laboratoire de Chimie des Gaz et des Combustibles
Orsay
France
;
'Gu\'erin H.'
;
Orsay Paris Sud XI University
Laboratoire de Chimie des Gaz et des Combustibles
Orsay
France
;

# Standardized crystallographic data

_cell_length_a                           8.82
_cell_length_b                           5.108
_cell_length_c                           16.827
_cell_angle_alpha                        90
_cell_angle_beta                         109.83
_cell_angle_gamma                        90
_cell_volume                             713.1
_cell_formula_units_Z                    4
_space_group_IT_number                   14
_space_group_name_H-M_alt                'P 1 21/c 1'
loop_
 _space_group_symop_id
 _space_group_symop_operation_xyz
 1 'x, y, z'
 2 '-x, -y, -z'
 3 '-x, 1/2+y, 1/2-z'
 4 'x, 1/2-y, 1/2+z'

# Atomic positions taken from type-defining entry

loop_
 _atom_type_symbol
 As
 O
 Sn
loop_
 _atom_site_label
 _atom_site_type_symbol
 _atom_site_symmetry_multiplicity
 _atom_site_Wyckoff_symbol
 _atom_site_fract_x
 _atom_site_fract_y
 _atom_site_fract_z
 _atom_site_occupancy
 As1 As 4 e 0.00231 0.2491 0.11411 1
 O1 O 4 e 0.065 0.0132 0.4025 1
 O2 O 4 e 0.1046 0.2284 0.2151 1
 O3 O 4 e 0.106 0.1925 0.0609 1
 O4 O 4 e 0.125 0.5485 0.404 1
 Sn1 Sn 4 e 0.23949 0.2463 0.48535 1
 O5 O 4 e 0.3418 0.5583 0.0621 1
 O6 O 4 e 0.3757 0.1936 0.4091 1
 O7 O 4 e 0.4158 0.0229 0.0657 1
 O8 O 4 e 0.4891 0.2569 0.2948 1
 As2 As 4 e 0.53006 0.2543 0.39756 1
 O9 O 4 e 0.7411 0.284 0.24 1


_exptl_crystal_colour                    ?
_exptl_crystal_density_meas              ?
_exptl_crystal_density_diffrn            3.88
_cell_measurement_temperature            ?
_cell_measurement_radiation              'X-rays, Cu Ka'
_cell_measurement_reflns_used            ?
_diffrn_ambient_temperature              ?
_diffrn_measurement_device               film
_diffrn_measurement_device_type          ?
_diffrn_radiation_type                   ?
_diffrn_reflns_number                    ?
_exptl_absorpt_coefficient_mu            ?
_exptl_absorpt_correction_type           ?
_computing_structure_solution            ?
_refine_ls_number_parameters             ?
_refine_ls_number_reflns                 ?
_refine_ls_R_factor_gt                   ?
_refine_ls_wR_factor_gt                  ?

# Published diffraction lines

loop_
 _refln_index_h
 _refln_index_k
 _refln_index_l
 _refln_d_spacing
 _refln_intensity_meas
 0 0 2 79.2 8
 1 1 0 43.49 7
 2 0 -2 43.27 6
 2 0 0 41.38 3
 1 1 2 35.58 9
 2 0 -4 35.24 8
 2 0 2 32.49 1.5
 1 1 -4 32.22 3
 0 1 4 31.28 2
 3 0 -2 29.396 2
 2 1 -4 28.992 2
 1 1 4 26.985 4
 2 0 -6 26.742 3
 0 0 6 26.382 2
 0 2 0 25.541 8
 3 1 -2 25.471 8
 0 2 1 25.2 1.5
 3 1 -3 25.11 1.5
 2 0 4 24.748 3
 1 1 -6 24.577 4
 3 1 0 24.306 4
 3 1 -4 24.18 3
 2 1 -6 23.68 1.5
 3 0 -6 23.46 1.5
 3 1 1 23.016 2
 3 1 -5 22.657 2
 2 1 4 22.27 1.5
 2 2 -2 21.982 4
 1 2 -4 21.765 1.5
 4 0 0 20.738 5
 0 1 7 20.67 6
 2 1 5 20.078 2
 4 1 -4 19.923 3
 0 0 8 19.786 2
 2 0 6 19.471 4
 1 1 -8 19.351 5
 3 2 -2 19.279 3
 4 0 2 18.57 3
 2 2 -6 18.47 4
 1 0 8 17.92 1.5
 2 2 4 17.773 5
 4 0 -8 17.603 5

# End of data set 557339


