##############################################################################
#                                                                            #
# H-O-P-Sn         # H2Sn[PO4]2[H2O]                               #  304543 #
#                                                                            #
##############################################################################
#                                                                            #
#                           Pearson's Crystal Data                           #
#      Crystal Structure Database for Inorganic Compounds (on DVD)           #
#                              Release 2017/18                               #
#                  Editors: Pierre Villars and Karin Cenzual                 #
#                                                                            #
#   Copyright (c) ASM International & Material Phases Data System (MPDS),    #
# Switzerland & National Institute for Materials Science (NIMS), Japan, 2017 #
#                   All rights reserved. Version 2017.08                     #
#                                                                            #
#   This copy of Pearson's Crystal Data is licensed to:                      #
#   University of Alberta, Chemistry Department, 1-5 Installations License         #
#                                                                            #
##############################################################################

data_304543
_audit_creation_date                     2017-12-01
_audit_creation_method
;
Pearson's Crystal Data browser
;
#_database_code_PCD                      304543

# Entry summary

_chemical_formula_structural             'H~2~ Sn [P O~4~]~2~ [H~2~ O]'
_chemical_formula_sum                    'H4 O9 P2 Sn'
_chemical_name_mineral                   ?
_chemical_compound_source                ?
_chemical_name_structure_type            H~2~Zr[PO~4~]~2~[H~2~O],mP48,14
_chemical_formula_weight                 328.7

# Bibliographic data

_publ_section_title
'The structure and properties of tin hydrogen phosphate'                      
_journal_coden_ASTM                      RJICAQ
_journal_name_full                       'Russ. J. Inorg. Chem.'
_journal_year                            1989
_journal_volume                          34
_journal_page_first                      669
_journal_page_last                       672
_journal_language                        English
loop_
 _publ_author_name
 _publ_author_address
'Yaroslavtsev A.B.'
;
Moscow M.V. Lomonosov State University
Moscow
Russia
;
'Prozorovskaya Z.N.'
;
Moscow M.V. Lomonosov State University
Moscow
Russia
;
'Chuvaev V.F.'
;
Moscow M.V. Lomonosov State University
Moscow
Russia
;
'Parshutkin V.V.'
;
Russian Academy of Sciences
Institute of Physical Chemistry
Moscow
Russia
;
'Shifanova G.G.'
;
Russian Academy of Sciences
Institute of Physical Chemistry
Moscow
Russia
;

# Standardized crystallographic data

_cell_length_a                           8.64
_cell_length_b                           4.997
_cell_length_c                           16.7684
_cell_angle_alpha                        90
_cell_angle_beta                         110.106
_cell_angle_gamma                        90
_cell_volume                             679.8
_cell_formula_units_Z                    4
_space_group_IT_number                   14
_space_group_name_H-M_alt                'P 1 21/c 1'
loop_
 _space_group_symop_id
 _space_group_symop_operation_xyz
 1 'x, y, z'
 2 '-x, -y, -z'
 3 '-x, 1/2+y, 1/2-z'
 4 'x, 1/2-y, 1/2+z'

# Atomic positions taken from type-defining entry

loop_
 _atom_type_symbol
 P
 O
 Sn
loop_
 _atom_site_label
 _atom_site_type_symbol
 _atom_site_symmetry_multiplicity
 _atom_site_Wyckoff_symbol
 _atom_site_fract_x
 _atom_site_fract_y
 _atom_site_fract_z
 _atom_site_occupancy
 P1 P 4 e 0.00231 0.2491 0.11411 1
 O1 O 4 e 0.065 0.0132 0.4025 1
 O2 O 4 e 0.1046 0.2284 0.2151 1
 O3 O 4 e 0.106 0.1925 0.0609 1
 O4 O 4 e 0.125 0.5485 0.404 1
 Sn1 Sn 4 e 0.23949 0.2463 0.48535 1
 O5 O 4 e 0.3418 0.5583 0.0621 1
 O6 O 4 e 0.3757 0.1936 0.4091 1
 O7 O 4 e 0.4158 0.0229 0.0657 1
 O8 O 4 e 0.4891 0.2569 0.2948 1
 P2 P 4 e 0.53006 0.2543 0.39756 1
 O9 O 4 e 0.7411 0.284 0.24 1


_exptl_crystal_colour                    ?
_exptl_crystal_density_meas              ?
_exptl_crystal_density_diffrn            3.21
_cell_measurement_temperature            ?
_cell_measurement_radiation              'X-rays, Cu Ka'
_cell_measurement_reflns_used            ?
_diffrn_ambient_temperature              ?
_diffrn_measurement_device               'Guinier film'
_diffrn_measurement_device_type          ?
_diffrn_radiation_type                   ?
_diffrn_reflns_number                    ?
_exptl_absorpt_coefficient_mu            ?
_exptl_absorpt_correction_type           ?
_computing_structure_solution            ?
_refine_ls_number_parameters             ?
_refine_ls_number_reflns                 ?
_refine_ls_R_factor_gt                   ?
_refine_ls_wR_factor_gt                  ?

# Published diffraction lines

loop_
 _refln_index_h
 _refln_index_k
 _refln_index_l
 _refln_d_spacing
 _refln_intensity_meas
 0 2 0 79.03 60
 2 0 0 42.53 60
 -2 0 2 34.88 100
 2 0 4 31.9 10
 -2 0 4 26.61 10
 -2 1 3 26.06 10
 0 2 0 24.987 40
 2 0 6 24.371 10
 0 2 2 23.815 10
 2 2 0 21.555 5
 4 0 4 20.302 10
 2 2 4 19.674 10
 -2 1 6 19.156 5
 -4 0 4 17.431 5
 4 2 2 16.308 10
 1 3 3 15.707 10
 -4 2 2 15.441 3
 3 3 1 14.426 10
 -3 3 1 14.183 10

# End of data set 304543


