##############################################################################
#                                                                            #
# H-O-P-Tl         # H2Tl[PO4] rt                                  # 1503571 #
#                                                                            #
##############################################################################
#                                                                            #
#                           Pearson's Crystal Data                           #
#      Crystal Structure Database for Inorganic Compounds (on DVD)           #
#                              Release 2017/18                               #
#                  Editors: Pierre Villars and Karin Cenzual                 #
#                                                                            #
#   Copyright (c) ASM International & Material Phases Data System (MPDS),    #
# Switzerland & National Institute for Materials Science (NIMS), Japan, 2017 #
#                   All rights reserved. Version 2017.08                     #
#                                                                            #
#   This copy of Pearson's Crystal Data is licensed to:                      #
#   University of Alberta, Chemistry Department, 1-5 Installations License         #
#                                                                            #
##############################################################################

data_1503571
_audit_creation_date                     2017-12-05
_audit_creation_method
;
Pearson's Crystal Data browser
;
#_database_code_PCD                      1503571

# Entry summary

_chemical_formula_structural             'H~2~ Tl [P O~4~]'
_chemical_formula_sum                    'H2 O4 P Tl'
_chemical_name_mineral                   ?
_chemical_compound_source                ?
_chemical_name_structure_type            H~2~Tl[PO~4~],mP24,14
_chemical_formula_weight                 301.4

# Bibliographic data

_publ_section_title
'The structure of paraelectric TlH~2~PO~4~'                                   
_journal_coden_ASTM                      ACACBN
_journal_name_full                       'Acta Crystallogr. A'
_journal_year                            1978
_journal_volume                          34
_journal_page_first                      S313d
_journal_page_last                       ?
_journal_language                        English
loop_
 _publ_author_name
 _publ_author_address
'Choudhary R.N.P.'
;
Edinburgh University
Department of Physics
Edinburgh
United Kingdom
;
'Nelmes R.J.'
;
Edinburgh University
Department of Physics
Edinburgh
United Kingdom
;

# Standardized crystallographic data

_cell_length_a                           6.518
_cell_length_b                           4.516
_cell_length_c                           14.308
_cell_angle_alpha                        90
_cell_angle_beta                         91.76
_cell_angle_gamma                        90
_cell_volume                             421
_cell_formula_units_Z                    4
_space_group_IT_number                   14
_space_group_name_H-M_alt                'P 1 21/c 1'
loop_
 _space_group_symop_id
 _space_group_symop_operation_xyz
 1 'x, y, z'
 2 '-x, -y, -z'
 3 '-x, 1/2+y, 1/2-z'
 4 'x, 1/2-y, 1/2+z'

# Atomic positions taken from type-defining entry

loop_
 _atom_type_symbol
 O
 P
 Tl
loop_
 _atom_site_label
 _atom_site_type_symbol
 _atom_site_symmetry_multiplicity
 _atom_site_Wyckoff_symbol
 _atom_site_fract_x
 _atom_site_fract_y
 _atom_site_fract_z
 _atom_site_occupancy
 O1 O 4 e 0.106 0.1571 0.0533 1
 O2 O 4 e 0.1671 0.7715 0.1816 1
 P1 P 4 e 0.2595 0.0214 0.1244 1
 O3 O 4 e 0.3293 0.2696 0.1908 1
 O4 O 4 e 0.5528 0.3956 0.4264 1
 Tl1 Tl 4 e 0.7578 0.4981 0.1279 1


_exptl_crystal_colour                    ?
_exptl_crystal_density_meas              ?
_exptl_crystal_density_diffrn            4.76
_cell_measurement_temperature            ?
_cell_measurement_radiation              'X-rays, Mo Ka'
_cell_measurement_reflns_used            ?
_diffrn_ambient_temperature              ?
_diffrn_measurement_device               'automatic diffractometer'
_diffrn_measurement_device_type          ?
_diffrn_radiation_type                   ?
_diffrn_reflns_number                    ?
_exptl_absorpt_coefficient_mu            ?
_exptl_absorpt_correction_type           ?
_computing_structure_solution            ?
_refine_ls_number_parameters             ?
_refine_ls_number_reflns                 ?
_refine_ls_R_factor_gt                   ?
_refine_ls_wR_factor_gt                  ?

# End of data set 1503571


