##############################################################################
#                                                                            #
# As-H-O-Tl        # H2Tl[AsO4] rt                                 #  309529 #
#                                                                            #
##############################################################################
#                                                                            #
#                           Pearson's Crystal Data                           #
#      Crystal Structure Database for Inorganic Compounds (on DVD)           #
#                              Release 2017/18                               #
#                  Editors: Pierre Villars and Karin Cenzual                 #
#                                                                            #
#   Copyright (c) ASM International & Material Phases Data System (MPDS),    #
# Switzerland & National Institute for Materials Science (NIMS), Japan, 2017 #
#                   All rights reserved. Version 2017.08                     #
#                                                                            #
#   This copy of Pearson's Crystal Data is licensed to:                      #
#   University of Alberta, Chemistry Department, 1-5 Installations License         #
#                                                                            #
##############################################################################

data_309529
_audit_creation_date                     2017-12-01
_audit_creation_method
;
Pearson's Crystal Data browser
;
#_database_code_PCD                      309529

# Entry summary

_chemical_formula_structural             'H~2~ Tl [As O~4~]'
_chemical_formula_sum                    'As H2 O4 Tl'
_chemical_name_mineral                   ?
_chemical_compound_source                ?
_chemical_name_structure_type            H~2~Tl[PO~4~],mP24,14
_chemical_formula_weight                 345.3

# Bibliographic data

_publ_section_title
'Thallium dihydrogen phosphate and dihydrogen arsenate'                       
_journal_coden_ASTM                      INOMAF
_journal_name_full                       'Inorg. Mater.'
_journal_year                            1985
_journal_volume                          21
_journal_page_first                      1572
_journal_page_last                       1573
_journal_language                        English
loop_
 _publ_author_name
 _publ_author_address
'Zhigarnovskii B.M.'
;
Russian Academy of Sciences
Kurnakov N.S. Institute of General and Inorganic Chemistry
Moscow
Russia
;
'Polyakov Y.A.'
;
Russian Academy of Sciences
Kurnakov N.S. Institute of General and Inorganic Chemistry
Moscow
Russia
;
'Rakhimov K.T.'
;
Russian Academy of Sciences
Kurnakov N.S. Institute of General and Inorganic Chemistry
Moscow
Russia
;
'Bugakov V.I.'
;
Russian Academy of Sciences
Kurnakov N.S. Institute of General and Inorganic Chemistry
Moscow
Russia
;
'Kozhenkov V.Y.'
;
Russian Academy of Sciences
Kurnakov N.S. Institute of General and Inorganic Chemistry
Moscow
Russia
;
'Maifat M.A.'
;
Russian Academy of Sciences
Kurnakov N.S. Institute of General and Inorganic Chemistry
Moscow
Russia
;

# Standardized crystallographic data

_cell_length_a                           6.75
_cell_length_b                           4.62
_cell_length_c                           14.64
_cell_angle_alpha                        90
_cell_angle_beta                         90.81
_cell_angle_gamma                        90
_cell_volume                             456.5
_cell_formula_units_Z                    4
_space_group_IT_number                   14
_space_group_name_H-M_alt                'P 1 21/c 1'
loop_
 _space_group_symop_id
 _space_group_symop_operation_xyz
 1 'x, y, z'
 2 '-x, -y, -z'
 3 '-x, 1/2+y, 1/2-z'
 4 'x, 1/2-y, 1/2+z'

# Atomic positions taken from type-defining entry

loop_
 _atom_type_symbol
 O
 As
 Tl
loop_
 _atom_site_label
 _atom_site_type_symbol
 _atom_site_symmetry_multiplicity
 _atom_site_Wyckoff_symbol
 _atom_site_fract_x
 _atom_site_fract_y
 _atom_site_fract_z
 _atom_site_occupancy
 O1 O 4 e 0.106 0.1571 0.0533 1
 O2 O 4 e 0.1671 0.7715 0.1816 1
 As1 As 4 e 0.2595 0.0214 0.1244 1
 O3 O 4 e 0.3293 0.2696 0.1908 1
 O4 O 4 e 0.5528 0.3956 0.4264 1
 Tl1 Tl 4 e 0.7578 0.4981 0.1279 1


_exptl_crystal_colour                    ?
_exptl_crystal_density_meas              ?
_exptl_crystal_density_diffrn            5.02
_cell_measurement_temperature            298
_cell_measurement_radiation              'X-rays, Cu Ka'
_cell_measurement_reflns_used            ?
_diffrn_ambient_temperature              ?
_diffrn_measurement_device               film
_diffrn_measurement_device_type          ?
_diffrn_radiation_type                   ?
_diffrn_reflns_number                    ?
_exptl_absorpt_coefficient_mu            ?
_exptl_absorpt_correction_type           ?
_computing_structure_solution            ?
_refine_ls_number_parameters             ?
_refine_ls_number_reflns                 ?
_refine_ls_R_factor_gt                   ?
_refine_ls_wR_factor_gt                  ?

# Published diffraction lines

loop_
 _refln_index_h
 _refln_index_k
 _refln_index_l
 _refln_d_spacing
 _refln_intensity_meas
 2 0 -1 50.4 8
 2 0 1 48.38 10
 1 1 0 44.15 5
 4 0 0 36.39 100
 0 0 2 33.56 20
 3 1 -1 30.28 15
 3 1 1 29.76 15
 1 1 2 26.63 5
 4 0 -2 24.9 30
 4 0 2 24.6 5
 3 1 -2 23.9 25
 0 2 0 23.11 35
 0 0 3 22.46 20
 2 0 3 21.39 8
 2 2 1 20.88 10
 6 0 2 19.62 10
 0 2 2 19.08 8
 3 1 -3 18.72 5
 8 0 0 18.21 60
 8 1 0 16.98 5
 6 2 0 16.73 8
 6 0 -3 16.53 5
 9 0 0 16.19 20
 1 1 -4 15.66 15
 9 1 0 15.29 8
 0 3 1 15.02 5

# End of data set 309529


