##############################################################################
#                                                                            #
# H-O-P-Yb         # H2YbP3O10 mon                                 #  551031 #
#                                                                            #
##############################################################################
#                                                                            #
#                           Pearson's Crystal Data                           #
#      Crystal Structure Database for Inorganic Compounds (on DVD)           #
#                              Release 2017/18                               #
#                  Editors: Pierre Villars and Karin Cenzual                 #
#                                                                            #
#   Copyright (c) ASM International & Material Phases Data System (MPDS),    #
# Switzerland & National Institute for Materials Science (NIMS), Japan, 2017 #
#                   All rights reserved. Version 2017.08                     #
#                                                                            #
#   This copy of Pearson's Crystal Data is licensed to:                      #
#   University of Alberta, Chemistry Department, 1-5 Installations License         #
#                                                                            #
##############################################################################

data_551031
_audit_creation_date                     2017-12-04
_audit_creation_method
;
Pearson's Crystal Data browser
;
#_database_code_PCD                      551031

# Entry summary

_chemical_formula_structural             'H~2~ Yb P~3~ O~10~'
_chemical_formula_sum                    'O10 P3 Yb'
_chemical_name_mineral                   ?
_chemical_compound_source                ?
_chemical_name_structure_type            H~2~YbP~3~O~10~,mS28,5
_chemical_formula_weight                 428.0

# Bibliographic data

_publ_section_title
'Structure of crystals of acid ytterbium tripolyphosphate YbH~2~P~3~O~10~'    
_journal_coden_ASTM                      INOMAF
_journal_name_full                       'Inorg. Mater.'
_journal_year                            1979
_journal_volume                          15
_journal_page_first                      1704
_journal_page_last                       1706
_journal_language                        English
loop_
 _publ_author_name
 _publ_author_address
'Palkina K.K.'
;
Russian Academy of Sciences
Kurnakov N.S. Institute of General and Inorganic Chemistry
Moscow
Russia
;
'Maksimova S.I.'
;
Russian Academy of Sciences
Kurnakov N.S. Institute of General and Inorganic Chemistry
Moscow
Russia
;
'Kuznetsov V.G.'
;
Russian Academy of Sciences
Kurnakov N.S. Institute of General and Inorganic Chemistry
Moscow
Russia
;

# Standardized crystallographic data

_cell_length_a                           10.011
_cell_length_b                           6.666
_cell_length_c                           5.617
_cell_angle_alpha                        90
_cell_angle_beta                         97.32
_cell_angle_gamma                        90
_cell_volume                             371.8
_cell_formula_units_Z                    2
_space_group_IT_number                   5
_space_group_name_H-M_alt                'C 1 2 1'
loop_
 _space_group_symop_id
 _space_group_symop_operation_xyz
 1 'x, y, z'
 2 '-x, y, -z'
 3 '1/2+x, 1/2+y, z'
 4 '1/2-x, 1/2+y, -z'
loop_
 _atom_type_symbol
 O
 P
 Yb
loop_
 _atom_site_label
 _atom_site_type_symbol
 _atom_site_symmetry_multiplicity
 _atom_site_Wyckoff_symbol
 _atom_site_fract_x
 _atom_site_fract_y
 _atom_site_fract_z
 _atom_site_occupancy
 O(2) O 4 c 0.083 0.12143 0.244 1
 P(2) P 4 c 0.18439 0.6834 0.19592 1
 O(4) O 4 c 0.207 0.33243 0.675 1
 O(5) O 4 c 0.305 0.05043 0.04 1
 O(3) O 4 c 0.581 0.08143 0.32 1
 O(1) O 4 c 0.626 0.34843 0.017 1
 Yb Yb 2 b 0 0.33043 0.5 1
 P(1) P 2 a 0 0.0 0 1


_exptl_crystal_colour                    ?
_exptl_crystal_density_meas              ?
_exptl_crystal_density_diffrn            3.82
_cell_measurement_temperature            ?
_cell_measurement_radiation              X-rays
_cell_measurement_reflns_used            ?
_diffrn_ambient_temperature              ?
_diffrn_measurement_device               'automatic diffractometer'
_diffrn_measurement_device_type          'Syntex P21'
_diffrn_radiation_type                   X-rays
_diffrn_reflns_number                    ?
_exptl_absorpt_coefficient_mu            ?
_exptl_absorpt_correction_type           ?
_computing_structure_solution            'Patterson and Fourier synthesis'
_refine_ls_number_parameters             ?
_refine_ls_number_reflns                 ?
_refine_ls_R_factor_gt                   0.068
_refine_ls_wR_factor_gt                  ?

# End of data set 551031


