##############################################################################
#                                                                            #
# H-O-P-Zr         # H2Zr[PO4]2[H2O]                               #  380113 #
#                                                                            #
##############################################################################
#                                                                            #
#                           Pearson's Crystal Data                           #
#      Crystal Structure Database for Inorganic Compounds (on DVD)           #
#                              Release 2017/18                               #
#                  Editors: Pierre Villars and Karin Cenzual                 #
#                                                                            #
#   Copyright (c) ASM International & Material Phases Data System (MPDS),    #
# Switzerland & National Institute for Materials Science (NIMS), Japan, 2017 #
#                   All rights reserved. Version 2017.08                     #
#                                                                            #
#   This copy of Pearson's Crystal Data is licensed to:                      #
#   University of Alberta, Chemistry Department, 1-5 Installations License         #
#                                                                            #
##############################################################################

data_380113
_audit_creation_date                     2017-12-01
_audit_creation_method
;
Pearson's Crystal Data browser
;
#_database_code_PCD                      380113

# Entry summary

_chemical_formula_structural             'H~2~ Zr [P O~4~]~2~ [H~2~ O]'
_chemical_formula_sum                    'H4 O9 P2 Zr'
_chemical_name_mineral                   ?
_chemical_compound_source                ?
_chemical_name_structure_type            H~2~Zr[PO~4~]~2~[H~2~O],mP48,14
_chemical_formula_weight                 301.2

# Bibliographic data

_publ_section_title
'Structure of crystalline acid titanium(IV) phosphate'                        
_journal_coden_ASTM                      INOMAF
_journal_name_full                       'Inorg. Mater.'
_journal_year                            1978
_journal_volume                          14
_journal_page_first                      216
_journal_page_last                       218
_journal_language                        English
loop_
 _publ_author_name
 _publ_author_address
'Dushin R.B.'
;
Federal State Unitary Enterprise
Khlopin V.G. Radium Institute
Saint Petersburg
Russia
;
'Krylov V.N.'
;
Federal State Unitary Enterprise
Khlopin V.G. Radium Institute
Saint Petersburg
Russia
;

# Standardized crystallographic data

_cell_length_a                           9.07
_cell_length_b                           5.298
_cell_length_c                           16.22
_cell_angle_alpha                        90
_cell_angle_beta                         111.5
_cell_angle_gamma                        90
_cell_volume                             725.2
_cell_formula_units_Z                    4
_space_group_IT_number                   14
_space_group_name_H-M_alt                'P 1 21/c 1'
loop_
 _space_group_symop_id
 _space_group_symop_operation_xyz
 1 'x, y, z'
 2 '-x, -y, -z'
 3 '-x, 1/2+y, 1/2-z'
 4 'x, 1/2-y, 1/2+z'

# Atomic positions taken from type-defining entry

loop_
 _atom_type_symbol
 P
 O
 Zr
loop_
 _atom_site_label
 _atom_site_type_symbol
 _atom_site_symmetry_multiplicity
 _atom_site_Wyckoff_symbol
 _atom_site_fract_x
 _atom_site_fract_y
 _atom_site_fract_z
 _atom_site_occupancy
 P1 P 4 e 0.00231 0.2491 0.11411 1
 O1 O 4 e 0.065 0.0132 0.4025 1
 O2 O 4 e 0.1046 0.2284 0.2151 1
 O3 O 4 e 0.106 0.1925 0.0609 1
 O4 O 4 e 0.125 0.5485 0.404 1
 Zr1 Zr 4 e 0.23949 0.2463 0.48535 1
 O5 O 4 e 0.3418 0.5583 0.0621 1
 O6 O 4 e 0.3757 0.1936 0.4091 1
 O7 O 4 e 0.4158 0.0229 0.0657 1
 O8 O 4 e 0.4891 0.2569 0.2948 1
 P2 P 4 e 0.53006 0.2543 0.39756 1
 O9 O 4 e 0.7411 0.284 0.24 1


_exptl_crystal_colour                    ?
_exptl_crystal_density_meas              ?
_exptl_crystal_density_diffrn            2.76
_cell_measurement_temperature            ?
_cell_measurement_radiation              'X-rays, Cu Ka'
_cell_measurement_reflns_used            ?
_diffrn_ambient_temperature              ?
_diffrn_measurement_device               film
_diffrn_measurement_device_type          ?
_diffrn_radiation_type                   ?
_diffrn_reflns_number                    ?
_exptl_absorpt_coefficient_mu            ?
_exptl_absorpt_correction_type           ?
_computing_structure_solution            ?
_refine_ls_number_parameters             ?
_refine_ls_number_reflns                 ?
_refine_ls_R_factor_gt                   ?
_refine_ls_wR_factor_gt                  ?

# Published diffraction lines

loop_
 _refln_index_h
 _refln_index_k
 _refln_index_l
 _refln_d_spacing
 _refln_intensity_meas
 0 0 2 75.2 75
 1 1 0 44.8 40
 -2 0 2 44.4 25
 1 1 2 35.7 100
 -2 0 4 35.4 68
 2 1 0 33.1 5
 -1 1 4 32.1 11
 0 1 4 30.7 7
 0 2 0 26.5 36
 -3 1 2 26.3 33
 -1 1 6 24 15
 2 1 4 21.9 5
 0 2 4 21.7 7
 -2 2 4 21.2 5
 2 2 2 20.4 11
 2 0 6 18.8 10
 2 2 4 17.8 10

# End of data set 380113


