##############################################################################
#                                                                            #
# As-H-O-Zr        # H2Zr[AsO4]2[H2O]2                             # 1520428 #
#                                                                            #
##############################################################################
#                                                                            #
#                           Pearson's Crystal Data                           #
#      Crystal Structure Database for Inorganic Compounds (on DVD)           #
#                              Release 2017/18                               #
#                  Editors: Pierre Villars and Karin Cenzual                 #
#                                                                            #
#   Copyright (c) ASM International & Material Phases Data System (MPDS),    #
# Switzerland & National Institute for Materials Science (NIMS), Japan, 2017 #
#                   All rights reserved. Version 2017.08                     #
#                                                                            #
#   This copy of Pearson's Crystal Data is licensed to:                      #
#   University of Alberta, Chemistry Department, 1-5 Installations License         #
#                                                                            #
##############################################################################

data_1520428
_audit_creation_date                     2017-12-05
_audit_creation_method
;
Pearson's Crystal Data browser
;
#_database_code_PCD                      1520428

# Entry summary

_chemical_formula_structural             'H~2~ Zr [As O~4~]~2~ [H~2~ O]~2~'
_chemical_formula_sum                    'As2 H6 O10 Zr'
_chemical_name_mineral                   ?
_chemical_compound_source                ?
_chemical_name_structure_type            H~2~Zr[PO~4~]~2~[H~2~O]~2~,mP26,4
_chemical_formula_weight                 407.1

# Bibliographic data

_publ_section_title
;
Crystal structure and intercalation properties of \g-Zr(AsO~4~)(H~2~AsO~4~).2H~2~O
;
_journal_coden_ASTM                      EJICFO
_journal_name_full                       'Eur. J. Inorg. Chem.'
_journal_year                            1999
_journal_volume                          ?
_journal_page_first                      61
_journal_page_last                       65
_journal_language                        English
loop_
 _publ_author_name
 _publ_author_address
'Rodriguez J.'
;
Oviedo University
Departamento de Quimica Organica e Inorganica
Oviedo
Spain
;
'Suarez M.'
;
Oviedo University
Departamento de Quimica Organica e Inorganica
Oviedo
Spain
;
'Rodriguez Martinez M.L.'
;
Oviedo University
Departamento de Quimica Organica e Inorganica
Oviedo
Spain
;
'Llavona R.'
;
Oviedo University
Departamento de Quimica Organica e Inorganica
Oviedo
Spain
;
'Arce M.J.'
;
Oviedo University
Departamento de Quimica Organica e Inorganica
Oviedo
Spain
;
'Salvado M.A.'
;
Oviedo University
Departamento de Quimica Fisica y Analitica y Organica e Inorganica
Oviedo
Spain
;
'Pertierra P.'
;
Oviedo University
Departamento de Quimica Fisica y Analitica y Organica e Inorganica
Oviedo
Spain
;
'Garcia Granda S.'
;
Oviedo University
Departamento de Quimica Fisica y Analitica y Organica e Inorganica
Oviedo
Spain
;

# Standardized crystallographic data

_cell_length_a                           5.5752
_cell_length_b                           6.829
_cell_length_c                           12.11
_cell_angle_alpha                        90
_cell_angle_beta                         103.03
_cell_angle_gamma                        90
_cell_volume                             449.19
_cell_formula_units_Z                    2
_space_group_IT_number                   4
_space_group_name_H-M_alt                'P 1 21 1'
loop_
 _space_group_symop_id
 _space_group_symop_operation_xyz
 1 'x, y, z'
 2 '-x, 1/2+y, -z'
loop_
 _atom_type_symbol
 O
 OH
 As
 Zr
 OH2
loop_
 _atom_site_label
 _atom_site_type_symbol
 _atom_site_symmetry_multiplicity
 _atom_site_Wyckoff_symbol
 _atom_site_fract_x
 _atom_site_fract_y
 _atom_site_fract_z
 _atom_site_occupancy
 O4 O 2 a 0.006 0.0011 0.009 1
 O6 O 2 a 0.088 0.0161 0.2508 1
 O8 OH 2 a 0.028 0.4641 0.5451 1
 O7 OH 2 a 0.042 0.1535 0.688 1
 As2 As 2 a 0.095 0.3964 0.6819 1
 As1 As 2 a 0.28 0.5 0.0619 1
 Zr Zr 2 a 0.316 0.0071 0.1384 1
 OW1 OH2 2 a 0.464 0.6341 0.3212 1
 O3 O 2 a 0.319 0.7021 0.144 1
 O2 O 2 a 0.332 0.3028 0.1343 1
 O1 O 2 a 0.527 0.0321 0.0211 1
 O5 O 2 a 0.61 -0.0619 0.2634 1
 OW2 OH2 2 a 0.51 0.2981 0.479 1


_exptl_crystal_colour                    ?
_exptl_crystal_density_meas              ?
_exptl_crystal_density_diffrn            3.01
_cell_measurement_temperature            ?
_cell_measurement_radiation              X-rays
_cell_measurement_reflns_used            ?
_diffrn_ambient_temperature              ?
_diffrn_measurement_device               'automatic diffractometer'
_diffrn_measurement_device_type          'Philips PW1050'
_diffrn_radiation_type                   X-rays
_diffrn_reflns_number                    620
_diffrn_reflns_theta_min                 1.5
_diffrn_reflns_theta_max                 55
_pd_proc_2theta_range_min                3
_pd_proc_2theta_range_max                110
_exptl_absorpt_coefficient_mu            ?
_exptl_absorpt_correction_type           ?
_computing_structure_solution            'starting values from the literature'
_refine_ls_number_parameters             54
_refine_ls_number_reflns                 ?
_refine_ls_R_factor_gt                   ?
_refine_ls_wR_factor_gt                  ?
_pd_proc_ls_proof_R_factor               ?
_pd_proc_ls_proof_wR_factor              0.21
_refine_ls_R_I_factor                    ?

# End of data set 1520428


