##############################################################################
#                                                                            #
# As-H-O-Zr        # H2Zr[AsO4]2[H2O]                              #  380114 #
#                                                                            #
##############################################################################
#                                                                            #
#                           Pearson's Crystal Data                           #
#      Crystal Structure Database for Inorganic Compounds (on DVD)           #
#                              Release 2017/18                               #
#                  Editors: Pierre Villars and Karin Cenzual                 #
#                                                                            #
#   Copyright (c) ASM International & Material Phases Data System (MPDS),    #
# Switzerland & National Institute for Materials Science (NIMS), Japan, 2017 #
#                   All rights reserved. Version 2017.08                     #
#                                                                            #
#   This copy of Pearson's Crystal Data is licensed to:                      #
#   University of Alberta, Chemistry Department, 1-5 Installations License         #
#                                                                            #
##############################################################################

data_380114
_audit_creation_date                     2017-12-01
_audit_creation_method
;
Pearson's Crystal Data browser
;
#_database_code_PCD                      380114

# Entry summary

_chemical_formula_structural             'H~2~ Zr [As O~4~]~2~ [H~2~ O]'
_chemical_formula_sum                    'As2 H4 O9 Zr'
_chemical_name_mineral                   ?
_chemical_compound_source                ?
_chemical_name_structure_type            H~2~Zr[PO~4~]~2~[H~2~O],mP48,14
_chemical_formula_weight                 389.1

# Bibliographic data

_publ_section_title
'Structure of crystalline acid titanium(IV) phosphate'                        
_journal_coden_ASTM                      INOMAF
_journal_name_full                       'Inorg. Mater.'
_journal_year                            1978
_journal_volume                          14
_journal_page_first                      216
_journal_page_last                       218
_journal_language                        English
loop_
 _publ_author_name
 _publ_author_address
'Dushin R.B.'
;
Federal State Unitary Enterprise
Khlopin V.G. Radium Institute
Saint Petersburg
Russia
;
'Krylov V.N.'
;
Federal State Unitary Enterprise
Khlopin V.G. Radium Institute
Saint Petersburg
Russia
;

# Standardized crystallographic data

_cell_length_a                           9.178
_cell_length_b                           5.378
_cell_length_c                           16.55
_cell_angle_alpha                        90
_cell_angle_beta                         111.3
_cell_angle_gamma                        90
_cell_volume                             761.1
_cell_formula_units_Z                    4
_space_group_IT_number                   14
_space_group_name_H-M_alt                'P 1 21/c 1'
loop_
 _space_group_symop_id
 _space_group_symop_operation_xyz
 1 'x, y, z'
 2 '-x, -y, -z'
 3 '-x, 1/2+y, 1/2-z'
 4 'x, 1/2-y, 1/2+z'

# Atomic positions taken from type-defining entry

loop_
 _atom_type_symbol
 As
 O
 Zr
loop_
 _atom_site_label
 _atom_site_type_symbol
 _atom_site_symmetry_multiplicity
 _atom_site_Wyckoff_symbol
 _atom_site_fract_x
 _atom_site_fract_y
 _atom_site_fract_z
 _atom_site_occupancy
 As1 As 4 e 0.00231 0.2491 0.11411 1
 O1 O 4 e 0.065 0.0132 0.4025 1
 O2 O 4 e 0.1046 0.2284 0.2151 1
 O3 O 4 e 0.106 0.1925 0.0609 1
 O4 O 4 e 0.125 0.5485 0.404 1
 Zr1 Zr 4 e 0.23949 0.2463 0.48535 1
 O5 O 4 e 0.3418 0.5583 0.0621 1
 O6 O 4 e 0.3757 0.1936 0.4091 1
 O7 O 4 e 0.4158 0.0229 0.0657 1
 O8 O 4 e 0.4891 0.2569 0.2948 1
 As2 As 4 e 0.53006 0.2543 0.39756 1
 O9 O 4 e 0.7411 0.284 0.24 1


_exptl_crystal_colour                    ?
_exptl_crystal_density_meas              ?
_exptl_crystal_density_diffrn            3.40
_cell_measurement_temperature            ?
_cell_measurement_radiation              'X-rays, Cu Ka'
_cell_measurement_reflns_used            ?
_diffrn_ambient_temperature              ?
_diffrn_measurement_device               film
_diffrn_measurement_device_type          ?
_diffrn_radiation_type                   ?
_diffrn_reflns_number                    ?
_exptl_absorpt_coefficient_mu            ?
_exptl_absorpt_correction_type           ?
_computing_structure_solution            ?
_refine_ls_number_parameters             ?
_refine_ls_number_reflns                 ?
_refine_ls_R_factor_gt                   ?
_refine_ls_wR_factor_gt                  ?

# Published diffraction lines

loop_
 _refln_index_h
 _refln_index_k
 _refln_index_l
 _refln_d_spacing
 _refln_intensity_meas
 0 0 2 78.2 40
 1 1 0 45.3 20
 -2 0 2 45.1 16
 -1 1 2 43 13
 1 1 1 41.5 1
 0 0 4 38.8 2
 1 1 2 36.25 100
 -2 0 4 36.04 60
 2 1 0 33.5 4
 -1 1 4 32.83 3
 0 1 4 31.25 3
 -3 0 2 30.73 2
 -2 1 4 29.81 1
 1 1 4 27 10
 0 2 0 26.83 22
 -3 1 2 26.65 32
 -3 1 1 26.31 4
 -1 2 1 25.81 5
 2 0 4 24.57 14
 3 1 1 23.66 3
 -2 2 4 21.48 10
 2 2 2 20.75 2

# End of data set 380114


