##############################################################################
#                                                                            #
# Cd-H-I-O         # H3Cd[IO6][H2O]3                               # 1501490 #
#                                                                            #
##############################################################################
#                                                                            #
#                           Pearson's Crystal Data                           #
#      Crystal Structure Database for Inorganic Compounds (on DVD)           #
#                              Release 2017/18                               #
#                  Editors: Pierre Villars and Karin Cenzual                 #
#                                                                            #
#   Copyright (c) ASM International & Material Phases Data System (MPDS),    #
# Switzerland & National Institute for Materials Science (NIMS), Japan, 2017 #
#                   All rights reserved. Version 2017.08                     #
#                                                                            #
#   This copy of Pearson's Crystal Data is licensed to:                      #
#   University of Alberta, Chemistry Department, 1-5 Installations License         #
#                                                                            #
##############################################################################

data_1501490
_audit_creation_date                     2017-12-05
_audit_creation_method
;
Pearson's Crystal Data browser
;
#_database_code_PCD                      1501490

# Entry summary

_chemical_formula_structural             'H~3~ Cd [I O~6~] [H~2~ O]~3~'
_chemical_formula_sum                    'Cd H6 I O9'
_chemical_name_mineral                   ?
_chemical_compound_source                ?
_chemical_name_structure_type            H~3~Cd[IO~6~][H~2~O]~3~,mP44,14
_chemical_formula_weight                 392.4

# Bibliographic data

_publ_section_title
;
Crystal and Molecular Structure of Cadmium Trihydrogenhexaoxoiodate(VII) Trihydrate
;
_journal_coden_ASTM                      ACBCAR
_journal_name_full                       'Acta Crystallogr. B'
_journal_year                            1970
_journal_volume                          26
_journal_page_first                      1069
_journal_page_last                       1074
_journal_language                        English
loop_
 _publ_author_name
 _publ_author_address
'Braibanti A.'
;
Parma University
Istituto di Chimica Generale
Parma
Italy
;
'Tiripicchio A.'
;
Parma University
Istituto di Chimica Generale
Parma
Italy
;
'Bigoli F.'
;
Parma University
Istituto di Chimica Generale
Parma
Italy
;
'Pellinghelli M.A.'
;
Parma University
Istituto di Chimica Generale
Parma
Italy
;

# Standardized crystallographic data

_cell_length_a                           5.957
_cell_length_b                           14.38
_cell_length_c                           9.715
_cell_angle_alpha                        90
_cell_angle_beta                         120.8
_cell_angle_gamma                        90
_cell_volume                             714.8
_cell_formula_units_Z                    4
_space_group_IT_number                   14
_space_group_name_H-M_alt                'P 1 21/c 1'
loop_
 _space_group_symop_id
 _space_group_symop_operation_xyz
 1 'x, y, z'
 2 '-x, -y, -z'
 3 '-x, 1/2+y, 1/2-z'
 4 'x, 1/2-y, 1/2+z'
loop_
 _atom_type_symbol
 O
 OH2
 I
 Cd
loop_
 _atom_site_label
 _atom_site_type_symbol
 _atom_site_symmetry_multiplicity
 _atom_site_Wyckoff_symbol
 _atom_site_fract_x
 _atom_site_fract_y
 _atom_site_fract_z
 _atom_site_occupancy
 O6 O 4 e 0.0295 0.735 0.1627 1
 O1 O 4 e 0.0414 0.3214 0.125 1
 O2 O 4 e 0.0529 0.1378 0.0733 1
 H2O3 OH2 4 e 0.2 0.5264 0.2867 1
 I I 4 e 0.2197 0.2411 0.051 1
 Cd Cd 4 e 0.2426 0.0804 0.3236 1
 H2O1 OH2 4 e 0.2879 0.5356 0.0295 1
 O4 O 4 e 0.4161 0.3424 0.4912 1
 O5 O 4 e 0.4248 0.3388 0.0524 1
 O3 O 4 e 0.4817 0.2202 0.2753 1
 H2O2 OH2 4 e 0.7178 0.4516 0.2956 1


_exptl_crystal_colour                    ?
_exptl_crystal_density_meas              3.61
_exptl_crystal_density_diffrn            3.65
_cell_measurement_temperature            ?
_cell_measurement_radiation              'X-rays, Cu Ka'
_cell_measurement_wavelength             1.5418
_cell_measurement_reflns_used            ?
_diffrn_ambient_temperature              ?
_diffrn_measurement_device               'Weissenberg photographs'
_diffrn_measurement_device_type          ?
_diffrn_radiation_type                   'X-rays, Cu Ka'
_diffrn_radiation_wavelength             1.5418
_diffrn_reflns_number                    ?
_exptl_absorpt_coefficient_mu            60.24
_exptl_absorpt_correction_type           cylindrical
_computing_structure_solution            'Patterson and Fourier synthesis'
_refine_ls_number_parameters             ?
_refine_ls_number_reflns                 1447
_refine_ls_R_factor_gt                   0.109
_refine_ls_wR_factor_gt                  ?

# End of data set 1501490


