##############################################################################
#                                                                            #
# Cs-Ga-H-O-P      # H3Cs2Ga[P2O7]2                                #  310273 #
#                                                                            #
##############################################################################
#                                                                            #
#                           Pearson's Crystal Data                           #
#      Crystal Structure Database for Inorganic Compounds (on DVD)           #
#                              Release 2017/18                               #
#                  Editors: Pierre Villars and Karin Cenzual                 #
#                                                                            #
#   Copyright (c) ASM International & Material Phases Data System (MPDS),    #
# Switzerland & National Institute for Materials Science (NIMS), Japan, 2017 #
#                   All rights reserved. Version 2017.08                     #
#                                                                            #
#   This copy of Pearson's Crystal Data is licensed to:                      #
#   University of Alberta, Chemistry Department, 1-5 Installations License         #
#                                                                            #
##############################################################################

data_310273
_audit_creation_date                     2017-12-01
_audit_creation_method
;
Pearson's Crystal Data browser
;
#_database_code_PCD                      310273

# Entry summary

_chemical_formula_structural             'H~3~ Cs~2~ Ga [P~2~ O~7~]~2~'
_chemical_formula_sum                    'Cs2 Ga H3 O14 P4'
_chemical_name_mineral                   ?
_chemical_compound_source                ?
_chemical_name_structure_type            H~3~Cs~2~Ga[P~2~O~7~]~2~,mP42,14
_chemical_formula_weight                 686.4

# Bibliographic data

_publ_section_title
'Structure of Cs~2~GaH~3~(P~2~O~7~)~2~'                                       
_journal_coden_ASTM                      INOMAF
_journal_name_full                       'Inorg. Mater.'
_journal_year                            1988
_journal_volume                          24
_journal_page_first                      198
_journal_page_last                       201
_journal_language                        English
loop_
 _publ_author_name
 _publ_author_address
'Gruntse I.'
;
Russian Academy of Sciences
Kurnakov N.S. Institute of General and Inorganic Chemistry
Moscow
Russia
;
'Maksimova S.I.'
;
Russian Academy of Sciences
Kurnakov N.S. Institute of General and Inorganic Chemistry
Moscow
Russia
;
'Palkina K.K.'
;
Russian Academy of Sciences
Kurnakov N.S. Institute of General and Inorganic Chemistry
Moscow
Russia
;
'Chibiskova N.T.'
;
Russian Academy of Sciences
Kurnakov N.S. Institute of General and Inorganic Chemistry
Moscow
Russia
;
'Chudinova N.N.'
;
Russian Academy of Sciences
Kurnakov N.S. Institute of General and Inorganic Chemistry
Moscow
Russia
;

# Standardized crystallographic data

_cell_length_a                           5.076
_cell_length_b                           7.9755
_cell_length_c                           17.0447
_cell_angle_alpha                        90
_cell_angle_beta                         100.234
_cell_angle_gamma                        90
_cell_volume                             679.1
_cell_formula_units_Z                    2
_space_group_IT_number                   14
_space_group_name_H-M_alt                'P 1 21/c 1'
loop_
 _space_group_symop_id
 _space_group_symop_operation_xyz
 1 'x, y, z'
 2 '-x, -y, -z'
 3 '-x, 1/2+y, 1/2-z'
 4 'x, 1/2-y, 1/2+z'
loop_
 _atom_type_symbol
 Cs
 O
 P
 Ga
 H
loop_
 _atom_site_label
 _atom_site_type_symbol
 _atom_site_symmetry_multiplicity
 _atom_site_Wyckoff_symbol
 _atom_site_fract_x
 _atom_site_fract_y
 _atom_site_fract_z
 _atom_site_occupancy
 Cs Cs 4 e 0.0296 0.5913 0.1355 1
 O(5) O 4 e 0.1246 0.5212 0.616 1
 O(6) O 4 e 0.2052 0.2171 0.21 1
 O(4) O 4 e 0.303 0.3599 0.4884 1
 P(2) P 4 e 0.3401 0.0583 0.1745 1
 O(2) O 4 e 0.4746 0.4142 0.056 1
 O(7) O 4 e 0.5273 0.4555 0.262 1
 P(1) P 4 e 0.5317 0.2238 0.042 1
 O(1) O 4 e 0.5588 0.1338 0.1278 1
 O(3) O 4 e 0.7917 0.2025 0.0168 1
 Ga Ga 2 a 0 0 0 1
 H(2) H 4 e 0.317 0.267 0.267 1
 H(1) H 2 d 0.5 0 0.5 1


_exptl_crystal_colour                    ?
_exptl_crystal_density_meas              ?
_exptl_crystal_density_diffrn            3.36
_cell_measurement_temperature            ?
_cell_measurement_radiation              'X-rays, Mo Ka'
_cell_measurement_reflns_used            ?
_diffrn_ambient_temperature              ?
_diffrn_measurement_device               'automatic diffractometer'
_diffrn_measurement_device_type          'Syntex P21'
_diffrn_radiation_type                   'X-rays, Mo Ka'
_diffrn_reflns_number                    ?
_diffrn_reflns_theta_min                 0
_diffrn_reflns_theta_max                 30
_exptl_absorpt_coefficient_mu            ?
_exptl_absorpt_correction_type           ?
_computing_structure_solution            'Patterson and Fourier synthesis'
_refine_ls_number_parameters             ?
_refine_ls_number_reflns                 ?
_refine_ls_R_factor_gt                   0.08
_refine_ls_wR_factor_gt                  ?

# End of data set 310273


