##############################################################################
#                                                                            #
# H-I-Mg-O         # H3Mg[IO6][H2O]6                               # 1501491 #
#                                                                            #
##############################################################################
#                                                                            #
#                           Pearson's Crystal Data                           #
#      Crystal Structure Database for Inorganic Compounds (on DVD)           #
#                              Release 2017/18                               #
#                  Editors: Pierre Villars and Karin Cenzual                 #
#                                                                            #
#   Copyright (c) ASM International & Material Phases Data System (MPDS),    #
# Switzerland & National Institute for Materials Science (NIMS), Japan, 2017 #
#                   All rights reserved. Version 2017.08                     #
#                                                                            #
#   This copy of Pearson's Crystal Data is licensed to:                      #
#   University of Alberta, Chemistry Department, 1-5 Installations License         #
#                                                                            #
##############################################################################

data_1501491
_audit_creation_date                     2017-12-05
_audit_creation_method
;
Pearson's Crystal Data browser
;
#_database_code_PCD                      1501491

# Entry summary

_chemical_formula_structural             'H~3~ Mg [I O~6~] [H~2~ O]~6~'
_chemical_formula_sum                    'H15 I Mg O12'
_chemical_name_mineral                   ?
_chemical_compound_source                ?
_chemical_name_structure_type            H~3~Mg[IO~6~][H~2~O]~6~,mP28,7
_chemical_formula_weight                 358.3

# Bibliographic data

_publ_section_title
;
Crystal and Molecular Structure of Hexaquomagnesium Trihydrogenhexaoxoiodate(VII)
;
_journal_coden_ASTM                      ACBCAR
_journal_name_full                       'Acta Crystallogr. B'
_journal_year                            1970
_journal_volume                          26
_journal_page_first                      1075
_journal_page_last                       1079
_journal_language                        English
loop_
 _publ_author_name
 _publ_author_address
'Bigoli F.'
;
Parma University
Istituto di Chimica Generale
Parma
Italy
;
'Manotti Lanfredi A.M.'
;
Parma University
Istituto di Chimica Generale
Parma
Italy
;
'Tiripicchio A.'
;
Parma University
Istituto di Chimica Generale
Parma
Italy
;
'Tiripicchio Camellini M.'
;
Parma University
Istituto di Chimica Generale
Parma
Italy
;

# Standardized crystallographic data

_cell_length_a                           5.18
_cell_length_b                           9.886
_cell_length_c                           10.625
_cell_angle_alpha                        90
_cell_angle_beta                         116.9
_cell_angle_gamma                        90
_cell_volume                             485.2
_cell_formula_units_Z                    2
_space_group_IT_number                   7
_space_group_name_H-M_alt                'P 1 c 1'
loop_
 _space_group_symop_id
 _space_group_symop_operation_xyz
 1 'x, y, z'
 2 'x, -y, 1/2+z'
loop_
 _atom_type_symbol
 OH
 OH2
 O
 I
 Mg
loop_
 _atom_site_label
 _atom_site_type_symbol
 _atom_site_symmetry_multiplicity
 _atom_site_Wyckoff_symbol
 _atom_site_fract_x
 _atom_site_fract_y
 _atom_site_fract_z
 _atom_site_occupancy
 O6 OH 2 a 0.0 0.1086 0.0 1
 O10 OH2 2 a 0.0487 0.5832 0.0818 1
 O7 OH2 2 a 0.0935 0.1541 0.437 1
 O4 O 2 a 0.1396 0.3304 0.1784 1
 O3 O 2 a 0.2378 0.6681 0.4463 1
 O12 OH2 2 a 0.283 0.1672 0.7414 1
 I I 2 a 0.3463 0.2206 0.1043 1
 Mg Mg 2 a 0.3758 0.2869 0.6027 1
 O11 OH2 2 a 0.4314 0.4095 0.4522 1
 O1 OH 2 a 0.4488 0.1054 0.2763 1
 O2 O 2 a 0.5497 0.1064 0.0538 1
 O9 OH2 2 a 0.6755 0.6007 0.2668 1
 O8 OH2 2 a 0.6874 0.1485 0.6145 1
 O5 OH 2 a 0.691 0.3252 0.2206 1


_exptl_crystal_colour                    ?
_exptl_crystal_density_meas              2.45
_exptl_crystal_density_diffrn            2.45
_cell_measurement_temperature            ?
_cell_measurement_radiation              'X-rays, Cu Ka'
_cell_measurement_wavelength             1.5418
_cell_measurement_reflns_used            ?
_diffrn_ambient_temperature              ?
_diffrn_measurement_device               'Weissenberg photographs'
_diffrn_measurement_device_type          ?
_diffrn_radiation_type                   'X-rays, Cu Ka'
_diffrn_radiation_wavelength             1.5418
_diffrn_reflns_number                    ?
_exptl_absorpt_coefficient_mu            27.69
_exptl_absorpt_correction_type           cylindrical
_computing_structure_solution            'Patterson and Fourier synthesis'
_refine_ls_number_parameters             ?
_refine_ls_number_reflns                 831
_refine_ls_R_factor_gt                   0.088
_refine_ls_wR_factor_gt                  ?

# End of data set 1501491


