##############################################################################
#                                                                            #
# H-Na-O-P-Te      # H3Na3[PO4]2Te[OH]6                            #  377399 #
#                                                                            #
##############################################################################
#                                                                            #
#                           Pearson's Crystal Data                           #
#      Crystal Structure Database for Inorganic Compounds (on DVD)           #
#                              Release 2017/18                               #
#                  Editors: Pierre Villars and Karin Cenzual                 #
#                                                                            #
#   Copyright (c) ASM International & Material Phases Data System (MPDS),    #
# Switzerland & National Institute for Materials Science (NIMS), Japan, 2017 #
#                   All rights reserved. Version 2017.08                     #
#                                                                            #
#   This copy of Pearson's Crystal Data is licensed to:                      #
#   University of Alberta, Chemistry Department, 1-5 Installations License         #
#                                                                            #
##############################################################################

data_377399
_audit_creation_date                     2017-12-01
_audit_creation_method
;
Pearson's Crystal Data browser
;
#_database_code_PCD                      377399

# Entry summary

_chemical_formula_structural             'H~3~ Na~3~ [P O~4~]~2~ Te [O H]~6~'
_chemical_formula_sum                    'H9 Na3 O14 P2 Te'
_chemical_name_mineral                   ?
_chemical_compound_source                ?
_chemical_name_structure_type
H~3~Na~3~[PO~4~]~2~Te[OH]~6~,hP40,182                                         
_chemical_formula_weight                 491.6

# Bibliographic data

_publ_section_title
;
Sur quelques nouveaux phosphate-tellurates et ars\'eniate-tellurates. Synth\`eses et donn\'ees cristallographiques
;
_journal_coden_ASTM                      CHDCAQ
_journal_name_full                       'C. R. Seances Acad. Sci., Ser. C'
_journal_year                            1980
_journal_volume                          291
_journal_page_first                      243
_journal_page_last                       246
_journal_language                        French
loop_
 _publ_author_name
 _publ_author_address
'Durif A.'
;
Grenoble Joseph Fourier Institute
Grenoble
France
;
'Averbuch Pouchot M.T.'
;
Centre National de la Recherche Scientifique (CNRS)
Laboratoire de Cristallographie
Grenoble
France
;

# Standardized crystallographic data

_cell_length_a                           7.868
_cell_length_b                           7.868
_cell_length_c                           10.85
_cell_angle_alpha                        90
_cell_angle_beta                         90
_cell_angle_gamma                        120
_cell_volume                             581.7
_cell_formula_units_Z                    2
_space_group_IT_number                   182
_space_group_name_H-M_alt                'P 63 2 2'
loop_
 _space_group_symop_id
 _space_group_symop_operation_xyz
 1 'x, y, z'
 2 '-x+y, -x, z'
 3 '-x+y, y, 1/2-z'
 4 '-x, -x+y, -z'
 5 '-x, -y, 1/2+z'
 6 '-y, -x, 1/2-z'
 7 '-y, x-y, z'
 8 'x, x-y, 1/2-z'
 9 'x-y, -y, -z'
 10 'x-y, x, 1/2+z'
 11 'y, -x+y, 1/2+z'
 12 'y, x, -z'

# Atomic positions taken from type-defining entry

loop_
 _atom_type_symbol
 O
 Na
 P
 Te
loop_
 _atom_site_label
 _atom_site_type_symbol
 _atom_site_symmetry_multiplicity
 _atom_site_Wyckoff_symbol
 _atom_site_fract_x
 _atom_site_fract_y
 _atom_site_fract_z
 _atom_site_occupancy
 O1 O 12 i 0.1401 0.4932 0.0759 1
 O2 O 12 i 0.209 0.1964 0.1518 1
 Na1 Na 6 h 0.5291 0.0583 0.25 1
 P1 P 4 f 0.333333 0.666667 0.02169 1
 O3 O 4 f 0.333333 0.666667 0.6167 1
 Te1 Te 2 b 0 0 0.25 1


_exptl_crystal_colour                    ?
_exptl_crystal_density_meas              ?
_exptl_crystal_density_diffrn            2.81
_cell_measurement_temperature            ?
_cell_measurement_radiation              'X-rays, Cu Ka'
_cell_measurement_reflns_used            ?
_diffrn_ambient_temperature              ?
_diffrn_measurement_device               film
_diffrn_measurement_device_type          ?
_diffrn_radiation_type                   ?
_diffrn_reflns_number                    ?
_exptl_absorpt_coefficient_mu            ?
_exptl_absorpt_correction_type           ?
_computing_structure_solution            ?
_refine_ls_number_parameters             ?
_refine_ls_number_reflns                 ?
_refine_ls_R_factor_gt                   ?
_refine_ls_wR_factor_gt                  ?

# Published diffraction lines

loop_
 _refln_index_h
 _refln_index_k
 _refln_index_l
 _refln_d_spacing
 _refln_intensity_meas
 1 0 0 68.2 26
 0 0 2 54.3 7
 1 0 2 42.4 100
 1 1 0 39.34 77
 2 0 0 34.06 16
 1 0 3 31.98 11
 2 0 2 28.83 33
 0 0 4 27.09 13
 1 1 3 26.61 12
 2 1 1 25.06 9
 2 1 2 23.27 24
 3 0 0 22.7 8
 1 1 4 22.33 7
 2 0 4 21.21 6
 2 1 3 20.96 11

# End of data set 377399


