##############################################################################
#                                                                            #
# H-Mn-O-P         # H4Mn[PO4]2[H2O]2                              #  306200 #
#                                                                            #
##############################################################################
#                                                                            #
#                           Pearson's Crystal Data                           #
#      Crystal Structure Database for Inorganic Compounds (on DVD)           #
#                              Release 2017/18                               #
#                  Editors: Pierre Villars and Karin Cenzual                 #
#                                                                            #
#   Copyright (c) ASM International & Material Phases Data System (MPDS),    #
# Switzerland & National Institute for Materials Science (NIMS), Japan, 2017 #
#                   All rights reserved. Version 2017.08                     #
#                                                                            #
#   This copy of Pearson's Crystal Data is licensed to:                      #
#   University of Alberta, Chemistry Department, 1-5 Installations License         #
#                                                                            #
##############################################################################

data_306200
_audit_creation_date                     2017-12-01
_audit_creation_method
;
Pearson's Crystal Data browser
;
#_database_code_PCD                      306200

# Entry summary

_chemical_formula_structural             'H~4~ Mn [P O~4~]~2~ [H~2~ O]~2~'
_chemical_formula_sum                    'H8 Mn O10 P2'
_chemical_name_mineral                   ?
_chemical_compound_source                ?
_chemical_name_structure_type            H~4~Cd[PO~4~]~2~[H~2~O]~2~,mP26,14
_chemical_formula_weight                 284.9

# Bibliographic data

_publ_section_title
'Magnesium, Manganese, and Cadmium Dihydrogen Phosphate Dihydrates'           
_journal_coden_ASTM                      RJICAQ
_journal_name_full                       'Russ. J. Inorg. Chem.'
_journal_year                            1982
_journal_volume                          27
_journal_page_first                      1095
_journal_page_last                       1099
_journal_language                        English
loop_
 _publ_author_name
 _publ_author_address
'Dzyuba E.D.'
;
Belarusian Academy of Sciences
Kirov S.M. Belorussian Technological Institute
Minsk
Belarus
;
'Pechkovskii V.V.'
;
Belarusian Academy of Sciences
Kirov S.M. Belorussian Technological Institute
Minsk
Belarus
;
'Salonets G.I.'
;
Belarusian Academy of Sciences
Kirov S.M. Belorussian Technological Institute
Minsk
Belarus
;
'Kovalishina V.I.'
;
Baku Narimanov Azerbaijan State Medical Institute
Baku
Azerbaijan
;
'Ivkovich N.A.'
;
Belarusian Academy of Sciences
Kirov S.M. Belorussian Technological Institute
Minsk
Belarus
;
'Chubarov A.V.'
;
Belarusian Academy of Sciences
Kirov S.M. Belorussian Technological Institute
Minsk
Belarus
;

# Standardized crystallographic data

_cell_length_a                           5.37
_cell_length_b                           10.08
_cell_length_c                           8.7047
_cell_angle_alpha                        90
_cell_angle_beta                         123.187
_cell_angle_gamma                        90
_cell_volume                             394.3
_cell_formula_units_Z                    2
_space_group_IT_number                   14
_space_group_name_H-M_alt                'P 1 21/c 1'
loop_
 _space_group_symop_id
 _space_group_symop_operation_xyz
 1 'x, y, z'
 2 '-x, -y, -z'
 3 '-x, 1/2+y, 1/2-z'
 4 'x, 1/2-y, 1/2+z'

# Atomic positions taken from type-defining entry

loop_
 _atom_type_symbol
 O
 P
 Mn
loop_
 _atom_site_label
 _atom_site_type_symbol
 _atom_site_symmetry_multiplicity
 _atom_site_Wyckoff_symbol
 _atom_site_fract_x
 _atom_site_fract_y
 _atom_site_fract_z
 _atom_site_occupancy
 O1 O 4 e 0.0349 0.3254 0.3591 1
 P1 P 4 e 0.0854 0.7838 0.3327 1
 O2 O 4 e 0.1417 0.3259 0.1187 1
 O3 O 4 e 0.1423 0.6413 0.3652 1
 O4 O 4 e 0.4979 0.036 0.2224 1
 O5 O 4 e 0.622 0.3624 0.0404 1
 Mn1 Mn 2 a 0 0 0 1


_exptl_crystal_colour                    ?
_exptl_crystal_density_meas              ?
_exptl_crystal_density_diffrn            2.40
_cell_measurement_temperature            ?
_cell_measurement_radiation              'X-rays, Cu Ka'
_cell_measurement_reflns_used            ?
_diffrn_ambient_temperature              ?
_diffrn_measurement_device               'automatic diffractometer'
_diffrn_measurement_device_type          ?
_diffrn_radiation_type                   ?
_diffrn_reflns_number                    ?
_exptl_absorpt_coefficient_mu            ?
_exptl_absorpt_correction_type           ?
_computing_structure_solution            ?
_refine_ls_number_parameters             ?
_refine_ls_number_reflns                 ?
_refine_ls_R_factor_gt                   ?
_refine_ls_wR_factor_gt                  ?

# End of data set 306200


