##############################################################################
#                                                                            #
# Cs-H-O-Se        # H5Cs[SeO3]3                                   # 1100860 #
#                                                                            #
##############################################################################
#                                                                            #
#                           Pearson's Crystal Data                           #
#      Crystal Structure Database for Inorganic Compounds (on DVD)           #
#                              Release 2017/18                               #
#                  Editors: Pierre Villars and Karin Cenzual                 #
#                                                                            #
#   Copyright (c) ASM International & Material Phases Data System (MPDS),    #
# Switzerland & National Institute for Materials Science (NIMS), Japan, 2017 #
#                   All rights reserved. Version 2017.08                     #
#                                                                            #
#   This copy of Pearson's Crystal Data is licensed to:                      #
#   University of Alberta, Chemistry Department, 1-5 Installations License         #
#                                                                            #
##############################################################################

data_1100860
_audit_creation_date                     2017-12-04
_audit_creation_method
;
Pearson's Crystal Data browser
;
#_database_code_PCD                      1100860

# Entry summary

_chemical_formula_structural             'H~5~ Cs [Se O~3~]~3~'
_chemical_formula_sum                    'Cs H5 O9 Se3'
_chemical_name_mineral                   ?
_chemical_compound_source                ?
_chemical_name_structure_type            H~5~Cs[SeO~3~]~3~,mP52,14
_chemical_formula_weight                 518.8
_chemical_melting_point                  310

# Bibliographic data

_publ_section_title
;
Crystal Structure, Thermal Behavior, and Infrared Absorption Spectrum of Cesium Hydrogen Selenite-Selenious Acid (1/2) CsHSeO~3~(H~2~SeO~3~)~2~
;
_journal_coden_ASTM                      JSSCBI
_journal_name_full                       'J. Solid State Chem.'
_journal_year                            1987
_journal_volume                          68
_journal_page_first                      307
_journal_page_last                       313
_journal_language                        English
loop_
 _publ_author_name
 _publ_author_address
'Hiltunen L.'
;
Espoo Helsinki University of Technology
Department of Chemistry
Espoo
Finland
;
'H\"ols\"a J.'
;
Espoo Helsinki University of Technology
Department of Chemistry
Espoo
Finland
;
'Micka Z.'
;
Prague Charles University
Department of Inorganic Chemistry
Prague
Czech Republic
;

# Standardized crystallographic data

_cell_length_a                           8.9897
_cell_length_b                           8.5078
_cell_length_c                           12.6467
_cell_angle_alpha                        90
_cell_angle_beta                         95.141
_cell_angle_gamma                        90
_cell_volume                             963.4
_cell_formula_units_Z                    4
_space_group_IT_number                   14
_space_group_name_H-M_alt                'P 1 21/c 1'
loop_
 _space_group_symop_id
 _space_group_symop_operation_xyz
 1 'x, y, z'
 2 '-x, -y, -z'
 3 '-x, 1/2+y, 1/2-z'
 4 'x, 1/2-y, 1/2+z'
loop_
 _atom_type_symbol
 OH
 Se
 O
 Cs
loop_
 _atom_site_label
 _atom_site_type_symbol
 _atom_site_symmetry_multiplicity
 _atom_site_Wyckoff_symbol
 _atom_site_fract_x
 _atom_site_fract_y
 _atom_site_fract_z
 _atom_site_occupancy
 O6 OH 4 e 0.0037 0.0015 0.1358 1
 Se2 Se 4 e 0.0143 0.5612 0.2341 1
 O4 OH 4 e 0.0229 0.3701 0.1825 1
 O1 O 4 e 0.0985 0.14555 0.4937 1
 O5 O 4 e 0.189 0.6127 0.2384 1
 Se1 Se 4 e 0.2343 0.2646 0.4646 1
 O2 O 4 e 0.2527 0.1089 0.0654 1
 O3 OH 4 e 0.3927 0.3546 0.0043 1
 Se3 Se 4 e 0.4706 0.4557 0.2359 1
 O7 O 4 e 0.5097 0.1264 0.3207 1
 O9 OH 4 e 0.5111 0.0015 0.1304 1
 O8 OH 4 e 0.6539 0.3893 0.2227 1
 Cs Cs 4 e 0.7576 0.2573 0.0048 1


_exptl_crystal_colour                    colorless
_exptl_crystal_density_meas              ?
_exptl_crystal_density_diffrn            3.58
_cell_measurement_temperature            ?
_cell_measurement_radiation              ?
_cell_measurement_reflns_used            ?
_diffrn_ambient_temperature              ?
_diffrn_measurement_device               'automatic diffractometer'
_diffrn_measurement_device_type          'Syntex P21'
_diffrn_radiation_type                   'X-rays, Mo Ka'
_diffrn_radiation_wavelength             0.71069
_diffrn_reflns_number                    2799
_exptl_absorpt_coefficient_mu            14.687
_exptl_absorpt_correction_type           no
_computing_structure_solution            'Patterson and Fourier synthesis'
_refine_ls_number_parameters             119
_refine_ls_number_reflns                 2200
_refine_ls_R_factor_gt                   0.050
_refine_ls_wR_factor_gt                  0.049

# End of data set 1100860


