##############################################################################
#                                                                            #
# Br-H-O           # HBr[H2O]2                                     # 1501572 #
#                                                                            #
##############################################################################
#                                                                            #
#                           Pearson's Crystal Data                           #
#      Crystal Structure Database for Inorganic Compounds (on DVD)           #
#                              Release 2017/18                               #
#                  Editors: Pierre Villars and Karin Cenzual                 #
#                                                                            #
#   Copyright (c) ASM International & Material Phases Data System (MPDS),    #
# Switzerland & National Institute for Materials Science (NIMS), Japan, 2017 #
#                   All rights reserved. Version 2017.08                     #
#                                                                            #
#   This copy of Pearson's Crystal Data is licensed to:                      #
#   University of Alberta, Chemistry Department, 1-5 Installations License         #
#                                                                            #
##############################################################################

data_1501572
_audit_creation_date                     2017-12-05
_audit_creation_method
;
Pearson's Crystal Data browser
;
#_database_code_PCD                      1501572

# Entry summary

_chemical_formula_structural             'H Br [H~2~ O]~2~'
_chemical_formula_sum                    'Br O2'
_chemical_name_mineral                   ?
_chemical_compound_source                ?
_chemical_name_structure_type            HCl[H~2~O]~2~,mP12,14
_chemical_formula_weight                 116.9
_chemical_melting_point                  262.0

# Bibliographic data

_publ_section_title
;
Hydrogen Bond Studies. XL. The Crystal Structures of Three Hydrates of Hydrogen Bromide, HBr.nH~2~O, n= 1, 2 and 3
;
_journal_coden_ASTM                      ACBCAR
_journal_name_full                       'Acta Crystallogr. B'
_journal_year                            1970
_journal_volume                          26
_journal_page_first                      1893
_journal_page_last                       1899
_journal_language                        English
loop_
 _publ_author_name
 _publ_author_address
'Lundgren J.O.'
;
Uppsala University
Institute of Chemistry
Uppsala
Sweden
;

# Standardized crystallographic data

_cell_length_a                           4.164
_cell_length_b                           12.422
_cell_length_c                           6.946
_cell_angle_alpha                        90
_cell_angle_beta                         101.21
_cell_angle_gamma                        90
_cell_volume                             352.4
_cell_formula_units_Z                    4
_space_group_IT_number                   14
_space_group_name_H-M_alt                'P 1 21/c 1'
loop_
 _space_group_symop_id
 _space_group_symop_operation_xyz
 1 'x, y, z'
 2 '-x, -y, -z'
 3 '-x, 1/2+y, 1/2-z'
 4 'x, 1/2-y, 1/2+z'
loop_
 _atom_type_symbol
 Br
 O
loop_
 _atom_site_label
 _atom_site_type_symbol
 _atom_site_symmetry_multiplicity
 _atom_site_Wyckoff_symbol
 _atom_site_fract_x
 _atom_site_fract_y
 _atom_site_fract_z
 _atom_site_occupancy
 Br Br 4 e 0.0337 0.3302 0.1561 1
 O2 O 4 e 0.3103 0.0575 0.2996 1
 O1 O 4 e 0.57 0.1241 0.042 1


_exptl_crystal_colour                    ?
_exptl_crystal_density_meas              2.11
_exptl_crystal_density_diffrn            2.20
_cell_measurement_temperature            83
_cell_measurement_radiation              'X-rays, Cu Ka1'
_cell_measurement_wavelength             1.54051
_cell_measurement_reflns_used            ?
_diffrn_ambient_temperature              83
_diffrn_measurement_device               'Weissenberg photographs'
_diffrn_measurement_device_type          ?
_diffrn_radiation_type                   'X-rays, Cu Ka'
_diffrn_reflns_number                    ?
_exptl_absorpt_coefficient_mu            15.7
_exptl_absorpt_correction_type           cylindrical
_computing_structure_solution            'Patterson and Fourier synthesis'
_refine_ls_number_parameters             28
_refine_ls_number_reflns                 543
_refine_ls_R_factor_gt                   0.079
_refine_ls_wR_factor_gt                  0.092

# End of data set 1501572


