##############################################################################
#                                                                            #
# As-Ca-H-O        # HCa[AsO4][H2O]2                               # 1100040 #
#                                                                            #
##############################################################################
#                                                                            #
#                           Pearson's Crystal Data                           #
#      Crystal Structure Database for Inorganic Compounds (on DVD)           #
#                              Release 2017/18                               #
#                  Editors: Pierre Villars and Karin Cenzual                 #
#                                                                            #
#   Copyright (c) ASM International & Material Phases Data System (MPDS),    #
# Switzerland & National Institute for Materials Science (NIMS), Japan, 2017 #
#                   All rights reserved. Version 2017.08                     #
#                                                                            #
#   This copy of Pearson's Crystal Data is licensed to:                      #
#   University of Alberta, Chemistry Department, 1-5 Installations License         #
#                                                                            #
##############################################################################

data_1100040
_audit_creation_date                     2017-12-04
_audit_creation_method
;
Pearson's Crystal Data browser
;
#_database_code_PCD                      1100040

# Entry summary

_chemical_formula_structural             'H Ca [As O~4~] [H~2~ O]~2~'
_chemical_formula_sum                    'As Ca H5 O6'
_chemical_name_mineral                   pharmacolite
_chemical_compound_source                ?
_chemical_name_structure_type            HCa[AsO~4~][H~2~O]~2~,mS32,9
_chemical_formula_weight                 216.0

# Bibliographic data

_publ_section_title
;
Determination of hydrogen atom positions in the crystal structure of pharmacolite, CaHAsO~4~.2H~2~O, by neutron diffraction
;
_journal_coden_ASTM                      ACBCAR
_journal_name_full                       'Acta Crystallogr. B'
_journal_year                            1971
_journal_volume                          27
_journal_page_first                      349
_journal_page_last                       354
_journal_language                        English
loop_
 _publ_author_name
 _publ_author_address
'Ferraris G.'
;
Bradford University
School of Chemistry
Bradford
United Kingdom
;
'Jones D.W.'
;
Bradford University
School of Chemistry
Bradford
United Kingdom
;
'Yerkess J.'
;
Bradford University
School of Chemistry
Bradford
United Kingdom
;

# Standardized crystallographic data

_cell_length_a                           6.6076
_cell_length_b                           15.434
_cell_length_c                           5.975
_cell_angle_alpha                        90
_cell_angle_beta                         120.371
_cell_angle_gamma                        90
_cell_volume                             525.7
_cell_formula_units_Z                    4
_space_group_IT_number                   9
_space_group_name_H-M_alt                'C 1 c 1'
loop_
 _space_group_symop_id
 _space_group_symop_operation_xyz
 1 'x, y, z'
 2 'x, -y, 1/2+z'
 3 '1/2+x, 1/2+y, z'
 4 '1/2+x, 1/2-y, 1/2+z'
loop_
 _atom_type_symbol
 O
 As
 Ca
 H
loop_
 _atom_site_label
 _atom_site_type_symbol
 _atom_site_symmetry_multiplicity
 _atom_site_Wyckoff_symbol
 _atom_site_fract_x
 _atom_site_fract_y
 _atom_site_fract_z
 _atom_site_occupancy
 O1 O 4 a 0.0 0.3746 0.0 1
 W1 O 4 a 0.0175 0.0743 0.6152 1
 O3 O 4 a 0.0502 0.1022 0.0952 1
 O4 O 4 a 0.1563 0.2497 0.3681 1
 As As 4 a 0.26 0.17575 0.2459 1
 Ca Ca 4 a 0.2833 0.6738 0.2619 1
 O2 O 4 a 0.3731 0.2214 0.0782 1
 W2 O 4 a 0.5425 0.0544 0.0145 1
 H2 H 4 a 0.0206 0.012 0.603 1
 H4 H 4 a 0.054 0.4925 0.0288 1
 H1 H 4 a 0.0749 0.3328 0.1628 1
 H5 H 4 a 0.3942 0.0652 0.8797 1
 H3 H 4 a 0.5199 0.4137 0.2786 1


_exptl_crystal_colour                    ?
_exptl_crystal_density_meas              ?
_exptl_crystal_density_diffrn            2.73
_cell_measurement_temperature            ?
_cell_measurement_radiation              ?
_cell_measurement_reflns_used            ?
_diffrn_ambient_temperature              ?
_diffrn_measurement_device               'automatic diffractometer'
_diffrn_measurement_device_type          ?
_diffrn_radiation_type                   neutrons
_diffrn_reflns_number                    691
_exptl_absorpt_coefficient_mu            ?
_exptl_absorpt_correction_type           ?
_computing_structure_solution            'Patterson and Fourier synthesis'
_refine_ls_number_parameters             ?
_refine_ls_number_reflns                 ?
_refine_ls_R_factor_gt                   0.053
_refine_ls_wR_factor_gt                  ?

# End of data set 1100040


