##############################################################################
#                                                                            #
# Cs-H-O-Se        # HCs3[SeO4]2 rt                                # 1001262 #
#                                                                            #
##############################################################################
#                                                                            #
#                           Pearson's Crystal Data                           #
#      Crystal Structure Database for Inorganic Compounds (on DVD)           #
#                              Release 2017/18                               #
#                  Editors: Pierre Villars and Karin Cenzual                 #
#                                                                            #
#   Copyright (c) ASM International & Material Phases Data System (MPDS),    #
# Switzerland & National Institute for Materials Science (NIMS), Japan, 2017 #
#                   All rights reserved. Version 2017.08                     #
#                                                                            #
#   This copy of Pearson's Crystal Data is licensed to:                      #
#   University of Alberta, Chemistry Department, 1-5 Installations License         #
#                                                                            #
##############################################################################

data_1001262
_audit_creation_date                     2017-12-04
_audit_creation_method
;
Pearson's Crystal Data browser
;
#_database_code_PCD                      1001262

# Entry summary

_chemical_formula_structural             'H Cs~3~ [Se O~4~]~2~'
_chemical_formula_sum                    'Cs3 H O8 Se2'
_chemical_name_mineral                   ?
_chemical_compound_source                ?
_chemical_name_structure_type            HCs~3~[SeO~4~]~2~,mS26,12
_chemical_formula_weight                 685.6

# Bibliographic data

_publ_section_title
;
Crystal structure of Cs~3~H(SeO~4~)~2~ (T= 295 K) and its changes at phase transitions
;
_journal_coden_ASTM                      SPHCA6
_journal_name_full                       'Sov. Phys. Crystallogr.'
_journal_year                            1988
_journal_volume                          33
_journal_page_first                      824
_journal_page_last                       827
_journal_language                        English
loop_
 _publ_author_name
 _publ_author_address
'Merinov B.V.'
;
Russian Academy of Sciences
Shubnikov A.V. Institute of Crystallography
Moscow
Russia
;
'Bolotina N.B.'
;
Russian Academy of Sciences
Shubnikov A.V. Institute of Crystallography
Moscow
Russia
;
'Baranov A.I.'
;
Russian Academy of Sciences
Shubnikov A.V. Institute of Crystallography
Moscow
Russia
;
'Shuvalov L.A.'
;
Russian Academy of Sciences
Shubnikov A.V. Institute of Crystallography
Moscow
Russia
;

# Standardized crystallographic data

_cell_length_a                           10.903
_cell_length_b                           6.3904
_cell_length_c                           8.452
_cell_angle_alpha                        90
_cell_angle_beta                         112.46
_cell_angle_gamma                        90
_cell_volume                             544.2
_cell_formula_units_Z                    2
_space_group_IT_number                   12
_space_group_name_H-M_alt                'C 1 2/m 1'
loop_
 _space_group_symop_id
 _space_group_symop_operation_xyz
 1 'x, y, z'
 2 '-x, -y, -z'
 3 '-x, y, -z'
 4 'x, -y, z'
 5 '1/2+x, 1/2+y, z'
 6 '1/2-x, 1/2-y, -z'
 7 '1/2-x, 1/2+y, -z'
 8 '1/2+x, 1/2-y, z'
loop_
 _atom_type_symbol
 O
 Cs
 Se
 H
loop_
 _atom_site_label
 _atom_site_type_symbol
 _atom_site_symmetry_multiplicity
 _atom_site_Wyckoff_symbol
 _atom_site_fract_x
 _atom_site_fract_y
 _atom_site_fract_z
 _atom_site_occupancy
 O1 O 8 j 0.01378 0.28888 0.30924 1
 Cs2 Cs 4 i 0.19739 0 0.607 1
 O3 O 4 i 0.28737 0 0.2608 1
 O2 O 4 i 0.39057 0 0.02003 1
 Se Se 4 i 0.42741 0 0.23489 1
 Cs1 Cs 2 a 0 0 0 1
 H H 2 b 0.5 0 0 1


_exptl_crystal_colour                    ?
_exptl_crystal_density_meas              ?
_exptl_crystal_density_diffrn            4.18
_cell_measurement_temperature            295
_cell_measurement_radiation              'X-rays, Mo Ka'
_cell_measurement_reflns_used            ?
_diffrn_ambient_temperature              295
_diffrn_measurement_device               'automatic diffractometer'
_diffrn_measurement_device_type          'Enraf-Nonius CAD4'
_diffrn_radiation_type                   'X-rays, Mo Ka'
_diffrn_reflns_number                    ?
_exptl_absorpt_coefficient_mu            13.75
_exptl_absorpt_correction_type           yes
_computing_structure_solution            'Patterson and Fourier synthesis'
_refine_ls_number_parameters             ?
_refine_ls_number_reflns                 1010
_refine_ls_R_factor_gt                   0.033
_refine_ls_wR_factor_gt                  0.030

# End of data set 1001262


