##############################################################################
#                                                                            #
# Cs-H-O-Se        # HCs[SeO4] rt                                  #  382971 #
#                                                                            #
##############################################################################
#                                                                            #
#                           Pearson's Crystal Data                           #
#      Crystal Structure Database for Inorganic Compounds (on DVD)           #
#                              Release 2017/18                               #
#                  Editors: Pierre Villars and Karin Cenzual                 #
#                                                                            #
#   Copyright (c) ASM International & Material Phases Data System (MPDS),    #
# Switzerland & National Institute for Materials Science (NIMS), Japan, 2017 #
#                   All rights reserved. Version 2017.08                     #
#                                                                            #
#   This copy of Pearson's Crystal Data is licensed to:                      #
#   University of Alberta, Chemistry Department, 1-5 Installations License         #
#                                                                            #
##############################################################################

data_382971
_audit_creation_date                     2017-12-01
_audit_creation_method
;
Pearson's Crystal Data browser
;
#_database_code_PCD                      382971

# Entry summary

_chemical_formula_structural             'H Cs [Se O~4~]'
_chemical_formula_sum                    'Cs O4 Se'
_chemical_name_mineral                   ?
_chemical_compound_source                ?
_chemical_name_structure_type            HCs[SO~4~]-a,mP24,14
_chemical_formula_weight                 276.9

# Bibliographic data

_publ_section_title
;
Hydrogen Rearrangements in CsHSeO~4~ Accompanied with both the Phase Transition and Domain-Boundary-Movement
;
_journal_coden_ASTM                      JUPSAU
_journal_name_full                       'J. Phys. Soc. Jpn.'
_journal_year                            1990
_journal_volume                          59
_journal_page_first                      197
_journal_page_last                       206
_journal_language                        English
loop_
 _publ_author_name
 _publ_author_address
'Komukae M.'
;
Tokyo University of Science
Department of Applied Physics
Tokyo / Tokyo
Japan
;
'Tanaka M.'
;
Tokyo University of Science
Department of Applied Physics
Tokyo / Tokyo
Japan
;
'Osaka T.'
;
Tokyo University of Science
Department of Applied Physics
Tokyo / Tokyo
Japan
;
'Makita Y.'
;
Tokyo University of Science
Department of Applied Physics
Tokyo / Tokyo
Japan
;
'Kozawa K.'
;
Noda Chiba Tokyo University of Science
Department of Industrial and Engineering Chemistry
Noda / Chiba
Japan
;
'Uchida T.'
;
Noda Chiba Tokyo University of Science
Department of Industrial and Engineering Chemistry
Noda / Chiba
Japan
;

# Standardized crystallographic data

_cell_length_a                           7.978
_cell_length_b                           8.42
_cell_length_c                           7.813
_cell_angle_alpha                        90
_cell_angle_beta                         111.34
_cell_angle_gamma                        90
_cell_volume                             488.9
_cell_formula_units_Z                    4
_space_group_IT_number                   14
_space_group_name_H-M_alt                'P 1 21/c 1'
loop_
 _space_group_symop_id
 _space_group_symop_operation_xyz
 1 'x, y, z'
 2 '-x, -y, -z'
 3 '-x, 1/2+y, 1/2-z'
 4 'x, 1/2-y, 1/2+z'
loop_
 _atom_type_symbol
 O
 Cs
 Se
loop_
 _atom_site_label
 _atom_site_type_symbol
 _atom_site_symmetry_multiplicity
 _atom_site_Wyckoff_symbol
 _atom_site_fract_x
 _atom_site_fract_y
 _atom_site_fract_z
 _atom_site_occupancy
 O4 O 4 e 0.101 0.258 0.137 1
 Cs1 Cs 4 e 0.2099 0.6282 0.2063 1
 Se1 Se 4 e 0.2542 0.1261 0.2212 1
 O2 O 4 e 0.349 0.065 0.08 1
 O1 O 4 e 0.429 0.216 0.387 1
 O3 O 4 e 0.812 0.483 0.187 1


_exptl_crystal_colour                    ?
_exptl_crystal_density_meas              ?
_exptl_crystal_density_diffrn            3.76
_cell_measurement_temperature            298
_cell_measurement_radiation              'X-rays, Mo Ka'
_cell_measurement_wavelength             0.7107
_cell_measurement_reflns_used            ?
_diffrn_ambient_temperature              298
_diffrn_measurement_device               'automatic diffractometer'
_diffrn_measurement_device_type          Rigaku-Denki
_diffrn_radiation_type                   'X-rays, Mo Ka'
_diffrn_radiation_wavelength             0.7107
_diffrn_reflns_number                    ?
_diffrn_reflns_theta_min                 0
_diffrn_reflns_theta_max                 32.5
_exptl_absorpt_coefficient_mu            ?
_exptl_absorpt_correction_type           yes
_computing_structure_solution            'starting values from the literature'
_refine_ls_number_parameters             ?
_refine_ls_number_reflns                 1035
_refine_ls_R_factor_gt                   0.0462
_refine_ls_wR_factor_gt                  ?

# End of data set 382971


