##############################################################################
#                                                                            #
# Hf-I             # Hf0.86I3                                      #  541474 #
#                                                                            #
##############################################################################
#                                                                            #
#                           Pearson's Crystal Data                           #
#      Crystal Structure Database for Inorganic Compounds (on DVD)           #
#                              Release 2017/18                               #
#                  Editors: Pierre Villars and Karin Cenzual                 #
#                                                                            #
#   Copyright (c) ASM International & Material Phases Data System (MPDS),    #
# Switzerland & National Institute for Materials Science (NIMS), Japan, 2017 #
#                   All rights reserved. Version 2017.08                     #
#                                                                            #
#   This copy of Pearson's Crystal Data is licensed to:                      #
#   University of Alberta, Chemistry Department, 1-5 Installations License         #
#                                                                            #
##############################################################################

data_541474
_audit_creation_date                     2017-12-04
_audit_creation_method
;
Pearson's Crystal Data browser
;
#_database_code_PCD                      541474

# Entry summary

_chemical_formula_structural             'Hf I~3~'
_chemical_formula_sum                    'Hf I3'
_chemical_name_mineral                   ?
_chemical_compound_source                ?
_chemical_name_structure_type            TiCl~3~,hP8,193
_chemical_formula_weight                 559.2

# Bibliographic data

_publ_section_title
'Structural studies of zirconium trihalides and hafnium triiodide'            
_journal_coden_ASTM                      INOCAJ
_journal_name_full                       'Inorg. Chem.'
_journal_year                            1964
_journal_volume                          3
_journal_page_first                      1236
_journal_page_last                       1242
_journal_language                        English
loop_
 _publ_author_name
 _publ_author_address
'Dahl L.F.'
;
Wisconsin Madison University
Department of Chemistry
Madison
U.S.A. Wisconsin
;
'Chiang T.I.'
;
Wisconsin Madison University
Department of Chemistry
Madison
U.S.A. Wisconsin
;
'Seabaugh P.W.'
;
Wisconsin Madison University
Department of Chemistry
Madison
U.S.A. Wisconsin
;
'Larsen E.M.'
;
Wisconsin Madison University
Department of Chemistry
Madison
U.S.A. Wisconsin
;

# Standardized crystallographic data

_cell_length_a                           7.225
_cell_length_b                           7.225
_cell_length_c                           6.59
_cell_angle_alpha                        90
_cell_angle_beta                         90
_cell_angle_gamma                        120
_cell_volume                             297.91
_cell_formula_units_Z                    2
_space_group_IT_number                   193
_space_group_name_H-M_alt                'P 63/m c m'
loop_
 _space_group_symop_id
 _space_group_symop_operation_xyz
 1 'x, y, z'
 2 '-x+y, -x, 1/2-z'
 3 '-x+y, -x, z'
 4 '-x+y, y, -z'
 5 '-x+y, y, 1/2+z'
 6 '-x, -x+y, 1/2-z'
 7 '-x, -x+y, z'
 8 '-x, -y, -z'
 9 '-x, -y, 1/2+z'
 10 '-y, -x, -z'
 11 '-y, -x, 1/2+z'
 12 '-y, x-y, 1/2-z'
 13 '-y, x-y, z'
 14 'x, x-y, -z'
 15 'x, x-y, 1/2+z'
 16 'x, y, 1/2-z'
 17 'x-y, -y, 1/2-z'
 18 'x-y, -y, z'
 19 'x-y, x, -z'
 20 'x-y, x, 1/2+z'
 21 'y, -x+y, -z'
 22 'y, -x+y, 1/2+z'
 23 'y, x, 1/2-z'
 24 'y, x, z'
loop_
 _atom_type_symbol
 I
 Hf
loop_
 _atom_site_label
 _atom_site_type_symbol
 _atom_site_symmetry_multiplicity
 _atom_site_Wyckoff_symbol
 _atom_site_fract_x
 _atom_site_fract_y
 _atom_site_fract_z
 _atom_site_occupancy
 I I 6 g 0.325 0 0.25 1
 Hf Hf 2 b 0 0 0 1


_exptl_crystal_colour                    ?
_exptl_crystal_density_meas              6.17
_exptl_crystal_density_diffrn            6.23
_cell_measurement_temperature            ?
_cell_measurement_radiation              'X-rays, Cu Ka'
_cell_measurement_reflns_used            ?
_diffrn_ambient_temperature              ?
_diffrn_measurement_device               'automatic diffractometer'
_diffrn_measurement_device_type          ?
_diffrn_radiation_type                   'X-rays, Cu Ka'
_diffrn_reflns_number                    ?
_exptl_absorpt_coefficient_mu            ?
_exptl_absorpt_correction_type           ?
_computing_structure_solution            'starting values from the literature'
_refine_ls_number_parameters             ?
_refine_ls_number_reflns                 ?
_refine_ls_R_factor_gt                   ?
_refine_ls_wR_factor_gt                  ?
_pd_proc_ls_proof_R_factor               ?
_pd_proc_ls_proof_wR_factor              ?
_refine_ls_R_I_factor                    ?

# End of data set 541474


