##############################################################################
#                                                                            #
# Co-Hf            # Hf2Co7                                        #  450356 #
#                                                                            #
##############################################################################
#                                                                            #
#                           Pearson's Crystal Data                           #
#      Crystal Structure Database for Inorganic Compounds (on DVD)           #
#                              Release 2017/18                               #
#                  Editors: Pierre Villars and Karin Cenzual                 #
#                                                                            #
#   Copyright (c) ASM International & Material Phases Data System (MPDS),    #
# Switzerland & National Institute for Materials Science (NIMS), Japan, 2017 #
#                   All rights reserved. Version 2017.08                     #
#                                                                            #
#   This copy of Pearson's Crystal Data is licensed to:                      #
#   University of Alberta, Chemistry Department, 1-5 Installations License         #
#                                                                            #
##############################################################################

data_450356
_audit_creation_date                     2017-12-01
_audit_creation_method
;
Pearson's Crystal Data browser
;
#_database_code_PCD                      450356

# Entry summary

_chemical_formula_structural             'Hf~2~ Co~7~'
_chemical_formula_sum                    'Co7 Hf2'
_chemical_name_mineral                   ?
_chemical_compound_source                ?
_chemical_name_structure_type            Zr~2~Ni~7~,mS36,12
_chemical_formula_weight                 769.5
_chemical_melting_point                  1623

# Bibliographic data

_publ_section_title                      'Note on the Hf-Co phase diagram'
_journal_coden_ASTM                      JCOMAH
_journal_name_full                       'J. Less-Common Met.'
_journal_year                            1978
_journal_volume                          59
_journal_page_first                      61
_journal_page_last                       67
_journal_language                        English
loop_
 _publ_author_name
 _publ_author_address
'Buschow K.H.J.'
;
AT and T Bell Laboratories Inc.
Murray Hill
U.S.A. New Jersey
;
'Wernick J.H.'
;
AT and T Bell Laboratories Inc.
Murray Hill
U.S.A. New Jersey
;
'Chin G.Y.'
;
AT and T Bell Laboratories Inc.
Murray Hill
U.S.A. New Jersey
;

# Standardized crystallographic data

_cell_length_a                           4.444
_cell_length_b                           8.191
_cell_length_c                           12.14
_cell_angle_alpha                        90
_cell_angle_beta                         90.
_cell_angle_gamma                        90
_cell_volume                             441.91
_cell_formula_units_Z                    4
_space_group_IT_number                   12
_space_group_name_H-M_alt                'C 1 2/m 1'
loop_
 _space_group_symop_id
 _space_group_symop_operation_xyz
 1 'x, y, z'
 2 '-x, -y, -z'
 3 '-x, y, -z'
 4 'x, -y, z'
 5 '1/2+x, 1/2+y, z'
 6 '1/2-x, 1/2-y, -z'
 7 '1/2-x, 1/2+y, -z'
 8 '1/2+x, 1/2-y, z'

# Atomic positions taken from type-defining entry

loop_
 _atom_type_symbol
 Co
 Hf
loop_
 _atom_site_label
 _atom_site_type_symbol
 _atom_site_symmetry_multiplicity
 _atom_site_Wyckoff_symbol
 _atom_site_fract_x
 _atom_site_fract_y
 _atom_site_fract_z
 _atom_site_occupancy
 Co1 Co 8 j 0.0033 0.2464 0.2507 1
 Co2 Co 8 j 0.2075 0.3375 0.0762 1
 Co3 Co 8 j 0.2974 0.3321 0.4208 1
 Hf1 Hf 4 i 0.2305 0 0.1160 1
 Co4 Co 4 i 0.2439 0 0.7540 1
 Hf2 Hf 4 i 0.2885 0 0.3867 1


_exptl_crystal_colour                    ?
_exptl_crystal_density_meas              ?
_exptl_crystal_density_diffrn            11.57
_cell_measurement_temperature            ?
_cell_measurement_radiation              X-rays
_cell_measurement_reflns_used            ?
_diffrn_ambient_temperature              ?
_diffrn_measurement_device               ?
_diffrn_measurement_device_type          ?
_diffrn_radiation_type                   ?
_diffrn_reflns_number                    ?
_exptl_absorpt_coefficient_mu            ?
_exptl_absorpt_correction_type           ?
_computing_structure_solution            ?
_refine_ls_number_parameters             ?
_refine_ls_number_reflns                 ?
_refine_ls_R_factor_gt                   ?
_refine_ls_wR_factor_gt                  ?

# End of data set 450356


