##############################################################################
#                                                                            #
# Co-Hf-P          # Hf2Co4P3                                      #  303265 #
#                                                                            #
##############################################################################
#                                                                            #
#                           Pearson's Crystal Data                           #
#      Crystal Structure Database for Inorganic Compounds (on DVD)           #
#                              Release 2017/18                               #
#                  Editors: Pierre Villars and Karin Cenzual                 #
#                                                                            #
#   Copyright (c) ASM International & Material Phases Data System (MPDS),    #
# Switzerland & National Institute for Materials Science (NIMS), Japan, 2017 #
#                   All rights reserved. Version 2017.08                     #
#                                                                            #
#   This copy of Pearson's Crystal Data is licensed to:                      #
#   University of Alberta, Chemistry Department, 1-5 Installations License         #
#                                                                            #
##############################################################################

data_303265
_audit_creation_date                     2017-12-01
_audit_creation_method
;
Pearson's Crystal Data browser
;
#_database_code_PCD                      303265

# Entry summary

_chemical_formula_structural             'Hf~2~ Co~4~ P~3~'
_chemical_formula_sum                    'Co4 Hf2 P3'
_chemical_name_mineral                   ?
_chemical_compound_source                ?
_chemical_name_structure_type            Hf~2~Co~4~P~3~,hP36,189
_chemical_formula_weight                 685.6

# Bibliographic data

_publ_section_title
'Die Kristallstruktur von Co~4~Hf~2~P~3~'                                     
_journal_coden_ASTM                      MOCMB7
_journal_name_full                       'Monatsh. Chem.'
_journal_year                            1968
_journal_volume                          99
_journal_page_first                      566
_journal_page_last                       574
_journal_language                        German
loop_
 _publ_author_name
 _publ_author_address
'Ganglberger E.'
;
Uppsala University
Institute of Inorganic Chemistry
Uppsala
Sweden
;

# Standardized crystallographic data

_cell_length_a                           12.0559
_cell_length_b                           12.0559
_cell_length_c                           3.6249
_cell_angle_alpha                        90
_cell_angle_beta                         90
_cell_angle_gamma                        120
_cell_volume                             456.3
_cell_formula_units_Z                    4
_space_group_IT_number                   189
_space_group_name_H-M_alt                'P -6 2 m'
loop_
 _space_group_symop_id
 _space_group_symop_operation_xyz
 1 'x, y, z'
 2 '-x+y, -x, -z'
 3 '-x+y, -x, z'
 4 '-x, -x+y, -z'
 5 '-x, -x+y, z'
 6 '-y, x-y, -z'
 7 '-y, x-y, z'
 8 'x, y, -z'
 9 'x-y, -y, -z'
 10 'x-y, -y, z'
 11 'y, x, -z'
 12 'y, x, z'
loop_
 _atom_type_symbol
 P
 Co
 Hf
loop_
 _atom_site_label
 _atom_site_type_symbol
 _atom_site_symmetry_multiplicity
 _atom_site_Wyckoff_symbol
 _atom_site_fract_x
 _atom_site_fract_y
 _atom_site_fract_z
 _atom_site_occupancy
 P2 P 6 k 0.1773 0.487 0.5 1
 Co3 Co 6 k 0.3566 0.4834 0.5 1
 Co2 Co 6 j 0.1776 0.3734 0 1
 Co1 Co 3 g 0.2794 0 0.5 1
 Hf1 Hf 3 g 0.8244 0 0.5 1
 P1 P 3 f 0.1791 0 0 1
 Hf3 Hf 3 f 0.4454 0 0 1
 P3 P 3 f 0.6532 0 0 1
 Hf2 Hf 2 c 0.333333 0.666667 0 1
 Co4 Co 1 a 0 0 0 1


_exptl_crystal_colour                    ?
_exptl_crystal_density_meas              ?
_exptl_crystal_density_diffrn            9.98
_cell_measurement_temperature            ?
_cell_measurement_radiation              'X-rays, Cr Ka1'
_cell_measurement_wavelength             2.28962
_pd_proc_wavelength                      2.28962
_cell_measurement_reflns_used            ?
_diffrn_ambient_temperature              ?
_diffrn_measurement_device               'Weissenberg photographs'
_diffrn_measurement_device_type          ?
_diffrn_radiation_type                   'X-rays, Mo Ka'
_diffrn_reflns_number                    ?
_exptl_absorpt_coefficient_mu            ?
_exptl_absorpt_correction_type           no
_computing_structure_solution            'Patterson and Fourier synthesis'
_refine_ls_number_parameters             ?
_refine_ls_number_reflns                 178
_refine_ls_R_factor_gt                   0.077
_refine_ls_wR_factor_gt                  ?

# Published diffraction lines

loop_
 _refln_index_h
 _refln_index_k
 _refln_index_l
 _refln_d_spacing
 _refln_intensity_meas
 1 1 0 3598 3
 2 0 0 4800 3
 2 1 0 8411 7
 0 0 1 9970 2
 3 0 0 10822 2
 1 0 1 11179 7
 1 1 1 13587 5
 2 2 0 14420 7
 2 0 1 14776 3
 3 1 0 15627 5
 3 0 1 20807 7
 3 2 0 22846 5.5
 2 2 1 24416 9
 4 1 0 25253 7
 3 1 1 25618 8
 4 0 1 29216 2
 5 0 0 30053 5
 3 3 0 32457 5
 3 2 1 32814 3.5
 4 2 0 33662 3.5
 4 1 1 35225 5
 5 1 0 37265 7
 0 0 2 39885 8
 5 0 1 40030 3
 3 3 1 42439 5
 6 0 0 43288 7.5
 5 2 0 46894 5
 5 1 1 47250 5
 2 1 2 48322 5

# End of data set 303265


