##############################################################################
#                                                                            #
# C-Hf-In          # Hf2InC                                        #  540389 #
#                                                                            #
##############################################################################
#                                                                            #
#                           Pearson's Crystal Data                           #
#      Crystal Structure Database for Inorganic Compounds (on DVD)           #
#                              Release 2017/18                               #
#                  Editors: Pierre Villars and Karin Cenzual                 #
#                                                                            #
#   Copyright (c) ASM International & Material Phases Data System (MPDS),    #
# Switzerland & National Institute for Materials Science (NIMS), Japan, 2017 #
#                   All rights reserved. Version 2017.08                     #
#                                                                            #
#   This copy of Pearson's Crystal Data is licensed to:                      #
#   University of Alberta, Chemistry Department, 1-5 Installations License         #
#                                                                            #
##############################################################################

data_540389
_audit_creation_date                     2017-12-04
_audit_creation_method
;
Pearson's Crystal Data browser
;
#_database_code_PCD                      540389

# Entry summary

_chemical_formula_structural             'Hf~2~ In C'
_chemical_formula_sum                    'C Hf2 In'
_chemical_name_mineral                   ?
_chemical_compound_source                ?
_chemical_name_structure_type            Cr~2~AlC,hP8,194
_chemical_formula_weight                 483.8

# Bibliographic data

_publ_section_title
'Die H-Phasen Ti~2~InC, Zr~2~InC, Hf~2~InC und Ti~2~GeC'                      
_journal_coden_ASTM                      MOCMB7
_journal_name_full                       'Monatsh. Chem.'
_journal_year                            1963
_journal_volume                          94
_journal_page_first                      1201
_journal_page_last                       1205
_journal_language                        German
loop_
 _publ_author_name
 _publ_author_address
'Jeitschko W.'
;
Vienna University
Institut f\"ur Physikalische Chemie
Vienna
Austria
;
'Nowotny H.'
;
Vienna University
Institut f\"ur Physikalische Chemie
Vienna
Austria
;
'Benesovsky F.'
;
Metallwerke Plansee A.G.
Reutte
Austria
;

# Standardized crystallographic data

_cell_length_a                           3.307
_cell_length_b                           3.307
_cell_length_c                           14.73
_cell_angle_alpha                        90
_cell_angle_beta                         90
_cell_angle_gamma                        120
_cell_volume                             139.5
_cell_formula_units_Z                    2
_space_group_IT_number                   194
_space_group_name_H-M_alt                'P 63/m m c'
loop_
 _space_group_symop_id
 _space_group_symop_operation_xyz
 1 'x, y, z'
 2 '-x+y, -x, 1/2-z'
 3 '-x+y, -x, z'
 4 '-x+y, y, 1/2-z'
 5 '-x+y, y, z'
 6 '-x, -x+y, -z'
 7 '-x, -x+y, 1/2+z'
 8 '-x, -y, -z'
 9 '-x, -y, 1/2+z'
 10 '-y, -x, 1/2-z'
 11 '-y, -x, z'
 12 '-y, x-y, 1/2-z'
 13 '-y, x-y, z'
 14 'x, x-y, 1/2-z'
 15 'x, x-y, z'
 16 'x, y, 1/2-z'
 17 'x-y, -y, -z'
 18 'x-y, -y, 1/2+z'
 19 'x-y, x, -z'
 20 'x-y, x, 1/2+z'
 21 'y, -x+y, -z'
 22 'y, -x+y, 1/2+z'
 23 'y, x, -z'
 24 'y, x, 1/2+z'
loop_
 _atom_type_symbol
 Hf
 In
 C
loop_
 _atom_site_label
 _atom_site_type_symbol
 _atom_site_symmetry_multiplicity
 _atom_site_Wyckoff_symbol
 _atom_site_fract_x
 _atom_site_fract_y
 _atom_site_fract_z
 _atom_site_occupancy
 Hf Hf 4 f 0.333333 0.666667 0.586 1
 In In 2 c 0.333333 0.666667 0.25 1
 C C 2 a 0 0 0 1


_exptl_crystal_colour                    ?
_exptl_crystal_density_meas              ?
_exptl_crystal_density_diffrn            11.52
_cell_measurement_temperature            ?
_cell_measurement_radiation              'X-rays, Cr Ka'
_cell_measurement_reflns_used            ?
_diffrn_ambient_temperature              ?
_diffrn_measurement_device               film
_diffrn_measurement_device_type          ?
_diffrn_radiation_type                   'X-rays, Cr Ka'
_diffrn_reflns_number                    ?
_exptl_absorpt_coefficient_mu            ?
_exptl_absorpt_correction_type           ?
_computing_structure_solution            'starting values from the literature'
_refine_ls_number_parameters             ?
_refine_ls_number_reflns                 ?
_refine_ls_R_factor_gt                   ?
_refine_ls_wR_factor_gt                  ?
_pd_proc_ls_proof_R_factor               ?
_pd_proc_ls_proof_wR_factor              ?
_refine_ls_R_I_factor                    ?

# Published diffraction lines

loop_
 _refln_index_h
 _refln_index_k
 _refln_index_l
 _refln_d_spacing
 _refln_intensity_meas
 0 0 2 248 3
 0 0 4 976 1
 1 0 0 1608 7
 1 0 1 1674 2
 1 0 3 2160 9
 0 0 6 2182 7
 1 0 4 2582 1
 1 0 6 3790 6
 1 0 7 4578 0.5
 1 1 0 4806 7
 1 1 4 5781 0.5
 2 0 0 6406 2
 1 0 9 6503 7
 2 0 3 6968 8
 2 0 6 8575 5
 0 0 12 8704 3

# End of data set 540389


