##############################################################################
#                                                                            #
# Hf-S             # Hf2S                                          #  535096 #
#                                                                            #
##############################################################################
#                                                                            #
#                           Pearson's Crystal Data                           #
#      Crystal Structure Database for Inorganic Compounds (on DVD)           #
#                              Release 2017/18                               #
#                  Editors: Pierre Villars and Karin Cenzual                 #
#                                                                            #
#   Copyright (c) ASM International & Material Phases Data System (MPDS),    #
# Switzerland & National Institute for Materials Science (NIMS), Japan, 2017 #
#                   All rights reserved. Version 2017.08                     #
#                                                                            #
#   This copy of Pearson's Crystal Data is licensed to:                      #
#   University of Alberta, Chemistry Department, 1-5 Installations License         #
#                                                                            #
##############################################################################

data_535096
_audit_creation_date                     2017-12-04
_audit_creation_method
;
Pearson's Crystal Data browser
;
#_database_code_PCD                      535096

# Entry summary

_chemical_formula_structural             'Hf~2~ S'
_chemical_formula_sum                    'Hf2 S'
_chemical_name_mineral                   ?
_chemical_compound_source                ?
_chemical_name_structure_type            NbS~2~,hP6,194
_chemical_formula_weight                 389.0

# Bibliographic data

_publ_section_title
'The lower sulphides of hafnium at high temperature'                          
_journal_coden_ASTM                      JINCAO
_journal_name_full                       'J. Inorg. Nucl. Chem.'
_journal_year                            1966
_journal_volume                          28
_journal_page_first                      377
_journal_page_last                       380
_journal_language                        English
loop_
 _publ_author_name
 _publ_author_address
'Franzen H.F.'
;
Iowa State Ames University of Science and Technology
Institute for Atomic Research
Ames
U.S.A. Iowa
;
'Graham J.'
;
Iowa State Ames University of Science and Technology
Institute for Atomic Research
Ames
U.S.A. Iowa
;

# Standardized crystallographic data

_cell_length_a                           3.3736
_cell_length_b                           3.3736
_cell_length_c                           11.7882
_cell_angle_alpha                        90
_cell_angle_beta                         90
_cell_angle_gamma                        120
_cell_volume                             116.19
_cell_formula_units_Z                    2
_space_group_IT_number                   194
_space_group_name_H-M_alt                'P 63/m m c'
loop_
 _space_group_symop_id
 _space_group_symop_operation_xyz
 1 'x, y, z'
 2 '-x+y, -x, 1/2-z'
 3 '-x+y, -x, z'
 4 '-x+y, y, 1/2-z'
 5 '-x+y, y, z'
 6 '-x, -x+y, -z'
 7 '-x, -x+y, 1/2+z'
 8 '-x, -y, -z'
 9 '-x, -y, 1/2+z'
 10 '-y, -x, 1/2-z'
 11 '-y, -x, z'
 12 '-y, x-y, 1/2-z'
 13 '-y, x-y, z'
 14 'x, x-y, 1/2-z'
 15 'x, x-y, z'
 16 'x, y, 1/2-z'
 17 'x-y, -y, -z'
 18 'x-y, -y, 1/2+z'
 19 'x-y, x, -z'
 20 'x-y, x, 1/2+z'
 21 'y, -x+y, -z'
 22 'y, -x+y, 1/2+z'
 23 'y, x, -z'
 24 'y, x, 1/2+z'

# Atomic positions taken from type-defining entry

loop_
 _atom_type_symbol
 Hf
 S
loop_
 _atom_site_label
 _atom_site_type_symbol
 _atom_site_symmetry_multiplicity
 _atom_site_Wyckoff_symbol
 _atom_site_fract_x
 _atom_site_fract_y
 _atom_site_fract_z
 _atom_site_occupancy
 Hf1 Hf 4 f 0.333333 0.666667 0.125 1
 S1 S 2 b 0 0 0.25 1


_exptl_crystal_colour                    ?
_exptl_crystal_density_meas              ?
_exptl_crystal_density_diffrn            11.12
_cell_measurement_temperature            ?
_cell_measurement_radiation              'X-rays, Cu Ka'
_cell_measurement_wavelength             1.54
_pd_proc_wavelength                      1.54
_cell_measurement_reflns_used            ?
_diffrn_ambient_temperature              ?
_diffrn_measurement_device               'Norelco film'
_diffrn_measurement_device_type          ?
_diffrn_radiation_type                   ?
_diffrn_reflns_number                    ?
_exptl_absorpt_coefficient_mu            ?
_exptl_absorpt_correction_type           ?
_computing_structure_solution            ?
_refine_ls_number_parameters             ?
_refine_ls_number_reflns                 ?
_refine_ls_R_factor_gt                   ?
_refine_ls_wR_factor_gt                  ?

# Published diffraction lines

loop_
 _refln_index_h
 _refln_index_k
 _refln_index_l
 _refln_d_spacing
 _refln_intensity_meas
 0 0 2 1740 15
 1 0 0 6950 60
 1 0 1 7440 60
 1 0 2 8740 20
 1 0 3 10890 100
 1 0 4 13910 50
 0 0 6 15490 35
 1 1 0 20980 40
 1 0 6 22460 15
 1 0 7 28000 80
 2 0 3 31820 5
 2 0 4 34790 30
 1 1 6 36420 10
 1 0 9 41730 40
 0 0 10 42830 15
 2 0 7 48870 10
 1 0 10 49880 30
 2 1 3 52720 25
 2 1 4 55700 25
 1 0 11 58710 15
 3 0 0 62600 20
 1 1 10 63670 10
 2 1 7 69610 20
 2 0 10 70610 30
 3 0 6 77990 30
 1 0 13 79100 20
 1 1 12 82370 20
 2 1 9 83280 35
 3 0 8 89930 20
 3 1 0 90370 5
 2 1 10 91360 25
 3 1 3 94250 20
 3 1 4 97190 10
 2 2 6 98770 15

# End of data set 535096


