##############################################################################
#                                                                            #
# Al-Hf            # Hf4Al3 rt                                     #  532908 #
#                                                                            #
##############################################################################
#                                                                            #
#                           Pearson's Crystal Data                           #
#      Crystal Structure Database for Inorganic Compounds (on DVD)           #
#                              Release 2017/18                               #
#                  Editors: Pierre Villars and Karin Cenzual                 #
#                                                                            #
#   Copyright (c) ASM International & Material Phases Data System (MPDS),    #
# Switzerland & National Institute for Materials Science (NIMS), Japan, 2017 #
#                   All rights reserved. Version 2017.08                     #
#                                                                            #
#   This copy of Pearson's Crystal Data is licensed to:                      #
#   University of Alberta, Chemistry Department, 1-5 Installations License         #
#                                                                            #
##############################################################################

data_532908
_audit_creation_date                     2017-12-04
_audit_creation_method
;
Pearson's Crystal Data browser
;
#_database_code_PCD                      532908

# Entry summary

_chemical_formula_structural             'Hf~4~ Al~3~'
_chemical_formula_sum                    'Al3 Hf4'
_chemical_name_mineral                   ?
_chemical_compound_source                ?
_chemical_name_structure_type            Zr~4~Al~3~,hP7,191
_chemical_formula_weight                 794.9

# Bibliographic data

_publ_section_title
'Die Kristallstruktur einiger Hafnium-haltiger Phasen'                        
_journal_coden_ASTM                      MOCMB7
_journal_name_full                       'Monatsh. Chem.'
_journal_year                            1960
_journal_volume                          91
_journal_page_first                      1174
_journal_page_last                       1184
_journal_language                        German
loop_
 _publ_author_name
 _publ_author_address
'Boller H.'
;
Vienna University
Institut f\"ur Physikalische Chemie
Vienna
Austria
;
'Nowotny H.'
;
Vienna University
Institut f\"ur Physikalische Chemie
Vienna
Austria
;
'Wittmann A.'
;
Vienna University
Institut f\"ur Physikalische Chemie
Vienna
Austria
;

# Standardized crystallographic data

_cell_length_a                           5.331
_cell_length_b                           5.331
_cell_length_c                           5.414
_cell_angle_alpha                        90
_cell_angle_beta                         90
_cell_angle_gamma                        120
_cell_volume                             133.25
_cell_formula_units_Z                    1
_space_group_IT_number                   191
_space_group_name_H-M_alt                'P 6/m m m'
loop_
 _space_group_symop_id
 _space_group_symop_operation_xyz
 1 'x, y, z'
 2 '-x+y, -x, -z'
 3 '-x+y, -x, z'
 4 '-x+y, y, -z'
 5 '-x+y, y, z'
 6 '-x, -x+y, -z'
 7 '-x, -x+y, z'
 8 '-x, -y, -z'
 9 '-x, -y, z'
 10 '-y, -x, -z'
 11 '-y, -x, z'
 12 '-y, x-y, -z'
 13 '-y, x-y, z'
 14 'x, x-y, -z'
 15 'x, x-y, z'
 16 'x, y, -z'
 17 'x-y, -y, -z'
 18 'x-y, -y, z'
 19 'x-y, x, -z'
 20 'x-y, x, z'
 21 'y, -x+y, -z'
 22 'y, -x+y, z'
 23 'y, x, -z'
 24 'y, x, z'

# Atomic positions taken from type-defining entry

loop_
 _atom_type_symbol
 Al
 Hf
loop_
 _atom_site_label
 _atom_site_type_symbol
 _atom_site_symmetry_multiplicity
 _atom_site_Wyckoff_symbol
 _atom_site_fract_x
 _atom_site_fract_y
 _atom_site_fract_z
 _atom_site_occupancy
 Al1 Al 3 f 0.5 0 0 1
 Hf1 Hf 2 e 0 0 0.25 1
 Hf2 Hf 2 d 0.333333 0.666667 0.5 1


_exptl_crystal_colour                    ?
_exptl_crystal_density_meas              9.39
_exptl_crystal_density_diffrn            9.91
_cell_measurement_temperature            ?
_cell_measurement_radiation              'X-rays, Cr Ka'
_cell_measurement_reflns_used            ?
_diffrn_ambient_temperature              ?
_diffrn_measurement_device               film
_diffrn_measurement_device_type          ?
_diffrn_radiation_type                   ?
_diffrn_reflns_number                    ?
_exptl_absorpt_coefficient_mu            ?
_exptl_absorpt_correction_type           ?
_computing_structure_solution            ?
_refine_ls_number_parameters             ?
_refine_ls_number_reflns                 ?
_refine_ls_R_factor_gt                   ?
_refine_ls_wR_factor_gt                  ?

# Published diffraction lines

loop_
 _refln_index_h
 _refln_index_k
 _refln_index_l
 _refln_d_spacing
 _refln_intensity_meas
 0 0 1 454 2
 1 0 0 618 3
 1 0 1 1060 3
 0 0 2 1799 1
 1 1 0 1853 7
 1 1 1 2291 7
 1 0 2 2410 7
 2 0 0 2455 3
 2 0 1 2911 5
 0 0 3 4029 3
 2 0 2 4261 6
 2 1 0 4307 1
 1 0 3 4643 3
 2 1 1 4756 3
 3 0 0 5540 6
 1 1 3 5868 4
 3 0 1 5988 5
 2 1 2 6108 7
 2 0 3 6495 4
 0 0 4 7160 5
 2 2 0 7393 7
 1 0 4 7839 4
 2 1 3 8346 5
 3 1 1 8448 4
 1 1 4 9004 8
 3 0 3 9575 6
 3 1 2 9792 8

# End of data set 532908


