##############################################################################
#                                                                            #
# Hf-Ir            # Hf5Ir3                                        #  452354 #
#                                                                            #
##############################################################################
#                                                                            #
#                           Pearson's Crystal Data                           #
#      Crystal Structure Database for Inorganic Compounds (on DVD)           #
#                              Release 2017/18                               #
#                  Editors: Pierre Villars and Karin Cenzual                 #
#                                                                            #
#   Copyright (c) ASM International & Material Phases Data System (MPDS),    #
# Switzerland & National Institute for Materials Science (NIMS), Japan, 2017 #
#                   All rights reserved. Version 2017.08                     #
#                                                                            #
#   This copy of Pearson's Crystal Data is licensed to:                      #
#   University of Alberta, Chemistry Department, 1-5 Installations License         #
#                                                                            #
##############################################################################

data_452354
_audit_creation_date                     2017-12-01
_audit_creation_method
;
Pearson's Crystal Data browser
;
#_database_code_PCD                      452354

# Entry summary

_chemical_formula_structural             'Hf~5~ Ir~3~'
_chemical_formula_sum                    'Hf5 Ir3'
_chemical_name_mineral                   ?
_chemical_compound_source                ?
_chemical_name_structure_type            Mn~5~Si~3~,hP16,193
_chemical_formula_weight                 1469.1

# Bibliographic data

_publ_section_title
'Einige neue Phasen vom Mn~5~Si~3~-Typ'                                       
_journal_coden_ASTM                      ZEMTAE
_journal_name_full                       'Z. Metallkd.'
_journal_year                            1967
_journal_volume                          58
_journal_page_first                      558
_journal_page_last                       559
_journal_language                        German
loop_
 _publ_author_name
 _publ_author_address
'Biswas T.K.'
;
Max Planck Society
Max Planck Institut f\"ur Metallforschung
Stuttgart
Germany
;
'Schubert K.'
;
Max Planck Society
Max Planck Institut f\"ur Metallforschung
Stuttgart
Germany
;

# Standardized crystallographic data

_cell_length_a                           7.943
_cell_length_b                           7.943
_cell_length_c                           5.454
_cell_angle_alpha                        90
_cell_angle_beta                         90
_cell_angle_gamma                        120
_cell_volume                             298
_cell_formula_units_Z                    2
_space_group_IT_number                   193
_space_group_name_H-M_alt                'P 63/m c m'
loop_
 _space_group_symop_id
 _space_group_symop_operation_xyz
 1 'x, y, z'
 2 '-x+y, -x, 1/2-z'
 3 '-x+y, -x, z'
 4 '-x+y, y, -z'
 5 '-x+y, y, 1/2+z'
 6 '-x, -x+y, 1/2-z'
 7 '-x, -x+y, z'
 8 '-x, -y, -z'
 9 '-x, -y, 1/2+z'
 10 '-y, -x, -z'
 11 '-y, -x, 1/2+z'
 12 '-y, x-y, 1/2-z'
 13 '-y, x-y, z'
 14 'x, x-y, -z'
 15 'x, x-y, 1/2+z'
 16 'x, y, 1/2-z'
 17 'x-y, -y, 1/2-z'
 18 'x-y, -y, z'
 19 'x-y, x, -z'
 20 'x-y, x, 1/2+z'
 21 'y, -x+y, -z'
 22 'y, -x+y, 1/2+z'
 23 'y, x, 1/2-z'
 24 'y, x, z'

# Atomic positions taken from type-defining entry

loop_
 _atom_type_symbol
 Hf
 Ir
loop_
 _atom_site_label
 _atom_site_type_symbol
 _atom_site_symmetry_multiplicity
 _atom_site_Wyckoff_symbol
 _atom_site_fract_x
 _atom_site_fract_y
 _atom_site_fract_z
 _atom_site_occupancy
 Hf1 Hf 6 g 0.236 0 0.25 1
 Ir1 Ir 6 g 0.5991 0 0.25 1
 Hf2 Hf 4 d 0.333333 0.666667 0 1


_exptl_crystal_colour                    ?
_exptl_crystal_density_meas              ?
_exptl_crystal_density_diffrn            16.37
_cell_measurement_temperature            ?
_cell_measurement_radiation              'X-rays, Cu Ka'
_cell_measurement_reflns_used            ?
_diffrn_ambient_temperature              ?
_diffrn_measurement_device               'Guinier film'
_diffrn_measurement_device_type          ?
_diffrn_radiation_type                   ?
_diffrn_reflns_number                    ?
_exptl_absorpt_coefficient_mu            ?
_exptl_absorpt_correction_type           ?
_computing_structure_solution            ?
_refine_ls_number_parameters             ?
_refine_ls_number_reflns                 ?
_refine_ls_R_factor_gt                   ?
_refine_ls_wR_factor_gt                  ?

# Published diffraction lines

loop_
 _refln_index_h
 _refln_index_k
 _refln_index_l
 _refln_d_spacing
 _refln_intensity_meas
 0 1 0 0.1256 5
 1 1 0 0.3768 2
 1 1 1 0.577 3
 0 0 2 0.7993 7
 1 2 0 0.8792 8
 0 1 2 0.9249 5
 1 2 1 1.0793 9
 0 3 0 1.1303 8
 1 1 2 1.1764 9
 0 2 2 1.3018 5
 2 2 0 1.5073 3
 1 3 0 1.6327 5
 2 2 1 1.7066 5
 1 3 1 1.8325 7
 0 3 2 1.9296 2
 0 4 0 2.0093 3
 2 2 2 2.3061 5
 2 3 1 2.5863 5
 1 4 0 2.6372 5
 1 2 3 2.6774 7
 0 4 2 2.8067 5
 0 5 0 3.14 5
 2 3 2 3.1892 5
 2 2 3 3.305 3
 1 3 3 3.4304 5
 2 4 0 3.5133 5
 3 3 1 3.5883 5
 2 4 1 3.716 3
 1 5 0 3.8936 2
 0 5 2 3.9391 7
 1 2 4 4.0758 5
 2 3 3 4.1851 5
 0 3 4 4.3267 5

# End of data set 452354


