##############################################################################
#                                                                            #
# Hf-Ir            # Hf5Ir3                                        #  452904 #
#                                                                            #
##############################################################################
#                                                                            #
#                           Pearson's Crystal Data                           #
#      Crystal Structure Database for Inorganic Compounds (on DVD)           #
#                              Release 2017/18                               #
#                  Editors: Pierre Villars and Karin Cenzual                 #
#                                                                            #
#   Copyright (c) ASM International & Material Phases Data System (MPDS),    #
# Switzerland & National Institute for Materials Science (NIMS), Japan, 2017 #
#                   All rights reserved. Version 2017.08                     #
#                                                                            #
#   This copy of Pearson's Crystal Data is licensed to:                      #
#   University of Alberta, Chemistry Department, 1-5 Installations License         #
#                                                                            #
##############################################################################

data_452904
_audit_creation_date                     2017-12-01
_audit_creation_method
;
Pearson's Crystal Data browser
;
#_database_code_PCD                      452904

# Entry summary

_chemical_formula_structural             'Hf~5~ Ir~3~'
_chemical_formula_sum                    'Hf5 Ir3'
_chemical_name_mineral                   ?
_chemical_compound_source                ?
_chemical_name_structure_type            Zr~5~Ir~3~,hP48,178
_chemical_formula_weight                 1469.1

# Bibliographic data

_publ_section_title
'Zr~5~Ir~3~ with a Deformation Superstructure of the Mn~5~Si~3~ Structure'    
_journal_coden_ASTM                      ACSCEE
_journal_name_full                       'Acta Crystallogr. C'
_journal_year                            1986
_journal_volume                          42
_journal_page_first                      1101
_journal_page_last                       1105
_journal_language                        English
loop_
 _publ_author_name
 _publ_author_address
'Cenzual K.'
;
Geneva University
Laboratoire de Cristallographie aux Rayons X
Geneva
Switzerland
;
'Parth\'e E.'
;
Geneva University
Laboratoire de Cristallographie aux Rayons X
Geneva
Switzerland
;

# Standardized crystallographic data

_cell_length_a                           7.863
_cell_length_b                           7.863
_cell_length_c                           16.89
_cell_angle_alpha                        90
_cell_angle_beta                         90
_cell_angle_gamma                        120
_cell_volume                             904.35
_cell_formula_units_Z                    6
_space_group_IT_number                   178
_space_group_name_H-M_alt                'P 61 2 2'
loop_
 _space_group_symop_id
 _space_group_symop_operation_xyz
 1 'x, y, z'
 2 '-x+y, -x, -1/3+z'
 3 '-x+y, y, 1/2-z'
 4 '-x, -x+y, -1/3-z'
 5 '-x, -y, 1/2+z'
 6 '-y, -x, -1/6-z'
 7 '-y, x-y, 1/3+z'
 8 'x, x-y, 1/6-z'
 9 'x-y, -y, -z'
 10 'x-y, x, 1/6+z'
 11 'y, -x+y, -1/6+z'
 12 'y, x, 1/3-z'

# Atomic positions taken from type-defining entry

loop_
 _atom_type_symbol
 Hf
 Ir
loop_
 _atom_site_label
 _atom_site_type_symbol
 _atom_site_symmetry_multiplicity
 _atom_site_Wyckoff_symbol
 _atom_site_fract_x
 _atom_site_fract_y
 _atom_site_fract_z
 _atom_site_occupancy
 Hf1 Hf 12 c 0.2384 0.0062 0.3396 1
 Ir1 Ir 12 c 0.4137 0.0187 0.1444 1
 Hf2 Hf 6 b 0.3710 0.7420 0.25 1
 Hf3 Hf 6 b 0.6557 0.3114 0.25 1
 Hf4 Hf 6 a 0.2480 0 0 1
 Ir2 Ir 6 a 0.6111 0 0 1


_exptl_crystal_colour                    ?
_exptl_crystal_density_meas              ?
_exptl_crystal_density_diffrn            16.19
_cell_measurement_temperature            ?
_cell_measurement_radiation              X-rays
_cell_measurement_reflns_used            ?
_diffrn_ambient_temperature              ?
_diffrn_measurement_device               ?
_diffrn_measurement_device_type          ?
_diffrn_radiation_type                   ?
_diffrn_reflns_number                    ?
_exptl_absorpt_coefficient_mu            ?
_exptl_absorpt_correction_type           ?
_computing_structure_solution            ?
_refine_ls_number_parameters             ?
_refine_ls_number_reflns                 ?
_refine_ls_R_factor_gt                   ?
_refine_ls_wR_factor_gt                  ?

# End of data set 452904


