##############################################################################
#                                                                            #
# Hf-Sn            # Hf5Sn4                                        #  532672 #
#                                                                            #
##############################################################################
#                                                                            #
#                           Pearson's Crystal Data                           #
#      Crystal Structure Database for Inorganic Compounds (on DVD)           #
#                              Release 2017/18                               #
#                  Editors: Pierre Villars and Karin Cenzual                 #
#                                                                            #
#   Copyright (c) ASM International & Material Phases Data System (MPDS),    #
# Switzerland & National Institute for Materials Science (NIMS), Japan, 2017 #
#                   All rights reserved. Version 2017.08                     #
#                                                                            #
#   This copy of Pearson's Crystal Data is licensed to:                      #
#   University of Alberta, Chemistry Department, 1-5 Installations License         #
#                                                                            #
##############################################################################

data_532672
_audit_creation_date                     2017-12-04
_audit_creation_method
;
Pearson's Crystal Data browser
;
#_database_code_PCD                      532672

# Entry summary

_chemical_formula_structural             'Hf~5~ Sn~4~'
_chemical_formula_sum                    'Hf5 Sn4'
_chemical_name_mineral                   ?
_chemical_compound_source                ?
_chemical_name_structure_type            Ti~5~Ga~4~,hP18,193
_chemical_formula_weight                 1367.2

# Bibliographic data

_publ_section_title
'Phasen mit oktaedrischen Bauelementen des \"Ubergangsmetalls'                
_journal_coden_ASTM                      MOCMB7
_journal_name_full                       'Monatsh. Chem.'
_journal_year                            1965
_journal_volume                          96
_journal_page_first                      232
_journal_page_last                       241
_journal_language                        German
loop_
 _publ_author_name
 _publ_author_address
'Rieger W.'
;
Vienna University
Institut f\"ur Physikalische Chemie
Vienna
Austria
;
'Nowotny H.'
;
Vienna University
Institut f\"ur Physikalische Chemie
Vienna
Austria
;
'Benesovsky F.'
;
Metallwerke Plansee A.G.
Reutte
Austria
;

# Standardized crystallographic data

_cell_length_a                           8.695
_cell_length_b                           8.695
_cell_length_c                           5.875
_cell_angle_alpha                        90
_cell_angle_beta                         90
_cell_angle_gamma                        120
_cell_volume                             384.66
_cell_formula_units_Z                    2
_space_group_IT_number                   193
_space_group_name_H-M_alt                'P 63/m c m'
loop_
 _space_group_symop_id
 _space_group_symop_operation_xyz
 1 'x, y, z'
 2 '-x+y, -x, 1/2-z'
 3 '-x+y, -x, z'
 4 '-x+y, y, -z'
 5 '-x+y, y, 1/2+z'
 6 '-x, -x+y, 1/2-z'
 7 '-x, -x+y, z'
 8 '-x, -y, -z'
 9 '-x, -y, 1/2+z'
 10 '-y, -x, -z'
 11 '-y, -x, 1/2+z'
 12 '-y, x-y, 1/2-z'
 13 '-y, x-y, z'
 14 'x, x-y, -z'
 15 'x, x-y, 1/2+z'
 16 'x, y, 1/2-z'
 17 'x-y, -y, 1/2-z'
 18 'x-y, -y, z'
 19 'x-y, x, -z'
 20 'x-y, x, 1/2+z'
 21 'y, -x+y, -z'
 22 'y, -x+y, 1/2+z'
 23 'y, x, 1/2-z'
 24 'y, x, z'

# Atomic positions taken from type-defining entry

loop_
 _atom_type_symbol
 Hf
 Sn
loop_
 _atom_site_label
 _atom_site_type_symbol
 _atom_site_symmetry_multiplicity
 _atom_site_Wyckoff_symbol
 _atom_site_fract_x
 _atom_site_fract_y
 _atom_site_fract_z
 _atom_site_occupancy
 Hf1 Hf 6 g 0.29 0 0.25 1
 Sn1 Sn 6 g 0.62 0 0.25 1
 Hf2 Hf 4 d 0.333333 0.666667 0 1
 Sn2 Sn 2 b 0 0 0 1


_exptl_crystal_colour                    ?
_exptl_crystal_density_meas              ?
_exptl_crystal_density_diffrn            11.80
_cell_measurement_temperature            ?
_cell_measurement_radiation              'X-rays, Cr Ka'
_cell_measurement_reflns_used            ?
_diffrn_ambient_temperature              ?
_diffrn_measurement_device               film
_diffrn_measurement_device_type          ?
_diffrn_radiation_type                   ?
_diffrn_reflns_number                    ?
_exptl_absorpt_coefficient_mu            ?
_exptl_absorpt_correction_type           ?
_computing_structure_solution            ?
_refine_ls_number_parameters             ?
_refine_ls_number_reflns                 ?
_refine_ls_R_factor_gt                   ?
_refine_ls_wR_factor_gt                  ?

# Published diffraction lines

loop_
 _refln_index_h
 _refln_index_k
 _refln_index_l
 _refln_d_spacing
 _refln_intensity_meas
 1 1 1 1092 1
 0 0 2 1530 2
 2 1 0 1640 2
 2 1 1 2012 6
 3 0 0 2104 7
 1 1 2 2233 8
 3 1 1 3400 4.5
 3 0 2 3605 1
 2 2 2 4304 6
 3 1 2 4537 1
 3 2 1 4781 4
 4 1 0 4860 3
 2 1 3 5043 5
 4 0 2 5227 4
 0 0 4 6082 5
 3 3 0 6260 4
 4 1 2 6378 7
 3 1 3 6432 3
 3 3 1 6611 1
 1 1 4 6776 1
 4 2 1 6857 5.5
 5 1 0 7160 2.5
 5 0 2 7301 2
 5 1 1 7545 6
 2 1 4 7709 2
 3 2 3 7810 4
 4 2 2 7980 2
 3 0 4 8160 8
 6 0 0 8333 4
 4 3 0 8560 2.5
 5 1 2 8704 3.5
 2 2 4 8841 2
 4 3 1 8940 2
 5 2 0 9035 5
 3 3 3 9668 2
 4 0 4 9776 3

# End of data set 532672


