##############################################################################
#                                                                            #
# As-Hf            # Hf7As4                                        #  527732 #
#                                                                            #
##############################################################################
#                                                                            #
#                           Pearson's Crystal Data                           #
#      Crystal Structure Database for Inorganic Compounds (on DVD)           #
#                              Release 2017/18                               #
#                  Editors: Pierre Villars and Karin Cenzual                 #
#                                                                            #
#   Copyright (c) ASM International & Material Phases Data System (MPDS),    #
# Switzerland & National Institute for Materials Science (NIMS), Japan, 2017 #
#                   All rights reserved. Version 2017.08                     #
#                                                                            #
#   This copy of Pearson's Crystal Data is licensed to:                      #
#   University of Alberta, Chemistry Department, 1-5 Installations License         #
#                                                                            #
##############################################################################

data_527732
_audit_creation_date                     2017-12-01
_audit_creation_method
;
Pearson's Crystal Data browser
;
#_database_code_PCD                      527732

# Entry summary

_chemical_formula_structural             'Hf~7~ As~4~'
_chemical_formula_sum                    'As4 Hf7'
_chemical_name_mineral                   ?
_chemical_compound_source                ?
_chemical_name_structure_type            Nb~7~P~4~,mS44,12
_chemical_formula_weight                 1549.1

# Bibliographic data

_publ_section_title
'New Phases in the Zr-P and Zr-As Systems'                                    
_journal_coden_ASTM                      ACAPCT
_journal_name_full                       'Acta Chem. Scand. A'
_journal_year                            1984
_journal_volume                          38
_journal_page_first                      91
_journal_page_last                       93
_journal_language                        English
loop_
 _publ_author_name
 _publ_author_address
'Willerstr\"om J.O.'
;
Uppsala University
Institute of Chemistry
Uppsala
Sweden
;

# Standardized crystallographic data

_cell_length_a                           16.115
_cell_length_b                           3.5912
_cell_length_c                           14.9283
_cell_angle_alpha                        90
_cell_angle_beta                         104.24
_cell_angle_gamma                        90
_cell_volume                             837.39
_cell_formula_units_Z                    4
_space_group_IT_number                   12
_space_group_name_H-M_alt                'C 1 2/m 1'
loop_
 _space_group_symop_id
 _space_group_symop_operation_xyz
 1 'x, y, z'
 2 '-x, -y, -z'
 3 '-x, y, -z'
 4 'x, -y, z'
 5 '1/2+x, 1/2+y, z'
 6 '1/2-x, 1/2-y, -z'
 7 '1/2-x, 1/2+y, -z'
 8 '1/2+x, 1/2-y, z'

# Atomic positions taken from type-defining entry

loop_
 _atom_type_symbol
 Hf
 As
loop_
 _atom_site_label
 _atom_site_type_symbol
 _atom_site_symmetry_multiplicity
 _atom_site_Wyckoff_symbol
 _atom_site_fract_x
 _atom_site_fract_y
 _atom_site_fract_z
 _atom_site_occupancy
 Hf1 Hf 4 i 0.00322 0 0.16537 1
 As1 As 4 i 0.06355 0 0.34915 1
 As2 As 4 i 0.17403 0 0.61243 1
 Hf2 Hf 4 i 0.17502 0 0.04042 1
 Hf3 Hf 4 i 0.20981 0 0.30030 1
 Hf4 Hf 4 i 0.33760 0 0.52775 1
 As3 As 4 i 0.37360 0 0.10229 1
 Hf5 Hf 4 i 0.43126 0 0.32675 1
 As4 As 4 i 0.63044 0 0.16429 1
 Hf6 Hf 4 i 0.80470 0 0.18812 1
 Hf7 Hf 2 c 0 0 0.5 1
 Hf8 Hf 2 b 0 0.5 0 1


_exptl_crystal_colour                    ?
_exptl_crystal_density_meas              ?
_exptl_crystal_density_diffrn            12.29
_cell_measurement_temperature            ?
_cell_measurement_radiation              'X-rays, Cr Ka1, Cu Ka1'
_cell_measurement_reflns_used            ?
_diffrn_ambient_temperature              ?
_diffrn_measurement_device               'Guinier-Haegg film'
_diffrn_measurement_device_type          ?
_diffrn_radiation_type                   ?
_diffrn_reflns_number                    ?
_exptl_absorpt_coefficient_mu            ?
_exptl_absorpt_correction_type           ?
_computing_structure_solution            ?
_refine_ls_number_parameters             ?
_refine_ls_number_reflns                 ?
_refine_ls_R_factor_gt                   ?
_refine_ls_wR_factor_gt                  ?

# End of data set 527732


