##############################################################################
#                                                                            #
# Al-Hf            # HfAl2                                         #  532907 #
#                                                                            #
##############################################################################
#                                                                            #
#                           Pearson's Crystal Data                           #
#      Crystal Structure Database for Inorganic Compounds (on DVD)           #
#                              Release 2017/18                               #
#                  Editors: Pierre Villars and Karin Cenzual                 #
#                                                                            #
#   Copyright (c) ASM International & Material Phases Data System (MPDS),    #
# Switzerland & National Institute for Materials Science (NIMS), Japan, 2017 #
#                   All rights reserved. Version 2017.08                     #
#                                                                            #
#   This copy of Pearson's Crystal Data is licensed to:                      #
#   University of Alberta, Chemistry Department, 1-5 Installations License         #
#                                                                            #
##############################################################################

data_532907
_audit_creation_date                     2017-12-04
_audit_creation_method
;
Pearson's Crystal Data browser
;
#_database_code_PCD                      532907

# Entry summary

_chemical_formula_structural             'Hf Al~2~'
_chemical_formula_sum                    'Al2 Hf'
_chemical_name_mineral                   ?
_chemical_compound_source                ?
_chemical_name_structure_type            MgZn~2~,hP12,194
_chemical_formula_weight                 232.5

# Bibliographic data

_publ_section_title
'Die Kristallstruktur einiger Hafnium-haltiger Phasen'                        
_journal_coden_ASTM                      MOCMB7
_journal_name_full                       'Monatsh. Chem.'
_journal_year                            1960
_journal_volume                          91
_journal_page_first                      1174
_journal_page_last                       1184
_journal_language                        German
loop_
 _publ_author_name
 _publ_author_address
'Boller H.'
;
Vienna University
Institut f\"ur Physikalische Chemie
Vienna
Austria
;
'Nowotny H.'
;
Vienna University
Institut f\"ur Physikalische Chemie
Vienna
Austria
;
'Wittmann A.'
;
Vienna University
Institut f\"ur Physikalische Chemie
Vienna
Austria
;

# Standardized crystallographic data

_cell_length_a                           5.234
_cell_length_b                           5.234
_cell_length_c                           8.656
_cell_angle_alpha                        90
_cell_angle_beta                         90
_cell_angle_gamma                        120
_cell_volume                             205.36
_cell_formula_units_Z                    4
_space_group_IT_number                   194
_space_group_name_H-M_alt                'P 63/m m c'
loop_
 _space_group_symop_id
 _space_group_symop_operation_xyz
 1 'x, y, z'
 2 '-x+y, -x, 1/2-z'
 3 '-x+y, -x, z'
 4 '-x+y, y, 1/2-z'
 5 '-x+y, y, z'
 6 '-x, -x+y, -z'
 7 '-x, -x+y, 1/2+z'
 8 '-x, -y, -z'
 9 '-x, -y, 1/2+z'
 10 '-y, -x, 1/2-z'
 11 '-y, -x, z'
 12 '-y, x-y, 1/2-z'
 13 '-y, x-y, z'
 14 'x, x-y, 1/2-z'
 15 'x, x-y, z'
 16 'x, y, 1/2-z'
 17 'x-y, -y, -z'
 18 'x-y, -y, 1/2+z'
 19 'x-y, x, -z'
 20 'x-y, x, 1/2+z'
 21 'y, -x+y, -z'
 22 'y, -x+y, 1/2+z'
 23 'y, x, -z'
 24 'y, x, 1/2+z'

# Atomic positions taken from type-defining entry

loop_
 _atom_type_symbol
 Al
 Hf
loop_
 _atom_site_label
 _atom_site_type_symbol
 _atom_site_symmetry_multiplicity
 _atom_site_Wyckoff_symbol
 _atom_site_fract_x
 _atom_site_fract_y
 _atom_site_fract_z
 _atom_site_occupancy
 Al1 Al 6 h 0.1697 0.3394 0.25 1
 Hf1 Hf 4 f 0.333333 0.666667 0.5629 1
 Al2 Al 2 a 0 0 0 1


_exptl_crystal_colour                    ?
_exptl_crystal_density_meas              ?
_exptl_crystal_density_diffrn            7.52
_cell_measurement_temperature            ?
_cell_measurement_radiation              'X-rays, Cr Ka'
_cell_measurement_reflns_used            ?
_diffrn_ambient_temperature              ?
_diffrn_measurement_device               film
_diffrn_measurement_device_type          ?
_diffrn_radiation_type                   ?
_diffrn_reflns_number                    ?
_exptl_absorpt_coefficient_mu            ?
_exptl_absorpt_correction_type           ?
_computing_structure_solution            ?
_refine_ls_number_parameters             ?
_refine_ls_number_reflns                 ?
_refine_ls_R_factor_gt                   ?
_refine_ls_wR_factor_gt                  ?

# Published diffraction lines

loop_
 _refln_index_h
 _refln_index_k
 _refln_index_l
 _refln_d_spacing
 _refln_intensity_meas
 1 0 0 635 5
 0 0 2 696 3
 1 0 1 816 4
 1 0 2 1331 4
 1 1 0 1908 7
 1 0 3 2210 7.5
 2 0 0 2553 3
 1 1 2 2615 7
 2 0 1 2730 5
 0 0 4 2808 1
 2 0 2 3265 1
 2 0 3 4132 5
 2 1 0 4477 3
 2 1 1 4651 3
 1 0 5 5017 5
 2 1 2 5183 4
 3 0 0 5757 5
 2 1 3 6057 7
 0 0 6 6311 2
 3 0 2 6453 6
 2 0 5 6938 7
 2 1 4 7278 1
 2 2 0 7664 6
 1 1 6 8201 5
 3 1 0 8293 3
 2 2 2 8366 4
 3 1 1 8486 3.5
 2 1 5 8859 8
 3 1 2 9009 5
 1 0 7 9218 3
 3 1 3 9876 8

# End of data set 532907


