##############################################################################
#                                                                            #
# Cr-Hf            # HfCr2 ht2                                     #  528013 #
#                                                                            #
##############################################################################
#                                                                            #
#                           Pearson's Crystal Data                           #
#      Crystal Structure Database for Inorganic Compounds (on DVD)           #
#                              Release 2017/18                               #
#                  Editors: Pierre Villars and Karin Cenzual                 #
#                                                                            #
#   Copyright (c) ASM International & Material Phases Data System (MPDS),    #
# Switzerland & National Institute for Materials Science (NIMS), Japan, 2017 #
#                   All rights reserved. Version 2017.08                     #
#                                                                            #
#   This copy of Pearson's Crystal Data is licensed to:                      #
#   University of Alberta, Chemistry Department, 1-5 Installations License         #
#                                                                            #
##############################################################################

data_528013
_audit_creation_date                     2017-12-01
_audit_creation_method
;
Pearson's Crystal Data browser
;
#_database_code_PCD                      528013

# Entry summary

_chemical_formula_structural             'Hf Cr~2~'
_chemical_formula_sum                    'Cr2 Hf'
_chemical_name_mineral                   ?
_chemical_compound_source                ?
_chemical_name_structure_type            MgZn~2~,hP12,194
_chemical_formula_weight                 282.5

# Bibliographic data

_publ_section_title                      'Laves-type phases of hafnium'
_journal_coden_ASTM                      TASEA7
_journal_name_full                       'Trans. Am. Soc. Met.'
_journal_year                            1961
_journal_volume                          53
_journal_page_first                      321
_journal_page_last                       329
_journal_language                        English
loop_
 _publ_author_name
 _publ_author_address
'Elliott R.P.'
;
Illinois Chicago Armour Research Foundation
Metals Research
Chicago
U.S.A. Illinois
;

# Standardized crystallographic data

_cell_length_a                           5.067
_cell_length_b                           5.067
_cell_length_c                           8.237
_cell_angle_alpha                        90
_cell_angle_beta                         90
_cell_angle_gamma                        120
_cell_volume                             183.15
_cell_formula_units_Z                    4
_space_group_IT_number                   194
_space_group_name_H-M_alt                'P 63/m m c'
loop_
 _space_group_symop_id
 _space_group_symop_operation_xyz
 1 'x, y, z'
 2 '-x+y, -x, 1/2-z'
 3 '-x+y, -x, z'
 4 '-x+y, y, 1/2-z'
 5 '-x+y, y, z'
 6 '-x, -x+y, -z'
 7 '-x, -x+y, 1/2+z'
 8 '-x, -y, -z'
 9 '-x, -y, 1/2+z'
 10 '-y, -x, 1/2-z'
 11 '-y, -x, z'
 12 '-y, x-y, 1/2-z'
 13 '-y, x-y, z'
 14 'x, x-y, 1/2-z'
 15 'x, x-y, z'
 16 'x, y, 1/2-z'
 17 'x-y, -y, -z'
 18 'x-y, -y, 1/2+z'
 19 'x-y, x, -z'
 20 'x-y, x, 1/2+z'
 21 'y, -x+y, -z'
 22 'y, -x+y, 1/2+z'
 23 'y, x, -z'
 24 'y, x, 1/2+z'
loop_
 _atom_type_symbol
 Cr
 Hf
loop_
 _atom_site_label
 _atom_site_type_symbol
 _atom_site_symmetry_multiplicity
 _atom_site_Wyckoff_symbol
 _atom_site_fract_x
 _atom_site_fract_y
 _atom_site_fract_z
 _atom_site_occupancy
 Cr2 Cr 6 h 0.167 0.334 0.25 1
 Hf Hf 4 f 0.333333 0.666667 0.563 1
 Cr1 Cr 2 a 0 0 0 1


_exptl_crystal_colour                    ?
_exptl_crystal_density_meas              ?
_exptl_crystal_density_diffrn            10.25
_cell_measurement_temperature            ?
_cell_measurement_radiation              'X-rays, Cu Ka'
_cell_measurement_reflns_used            ?
_diffrn_ambient_temperature              ?
_diffrn_measurement_device               'automatic diffractometer'
_diffrn_measurement_device_type          ?
_diffrn_radiation_type                   'X-rays, Cu Ka'
_diffrn_reflns_number                    ?
_exptl_absorpt_coefficient_mu            ?
_exptl_absorpt_correction_type           ?
_computing_structure_solution            ?
_refine_ls_number_parameters             ?
_refine_ls_number_reflns                 ?
_refine_ls_R_factor_gt                   ?
_refine_ls_wR_factor_gt                  ?
_pd_proc_ls_proof_R_factor               ?
_pd_proc_ls_proof_wR_factor              ?
_refine_ls_R_I_factor                    ?

# Published diffraction lines

loop_
 _refln_index_h
 _refln_index_k
 _refln_index_l
 _refln_d_spacing
 _refln_intensity_meas
 1 0 0 44.09 3
 0 0 2 41.21 2
 1 0 1 38.46 3
 1 0 2 30.11 4
 1 1 0 25.38 10
 1 0 3 23.3 10
 2 0 0 21.93 5
 1 1 2 21.6 10
 2 0 1 21.24 10
 0 0 4 20.56 4
 1 0 4 18.71 4
 2 0 3 17.14 5
 2 1 0 16.58 4
 2 1 1 16.27 4
 1 0 5 15.41 8
 3 0 0 14.64 7
 2 1 3 14.22 9
 3 0 2 13.79 8
 2 0 5 13.19 8
 1 0 6 13.1 0.5
 2 2 0 12.69 8
 2 2 1 12.56 0.5
 3 1 0 12.09 1
 1 1 6 12.03 1
 3 1 2 11.7 7
 2 0 6 11.62 6
 1 0 7 11.37 3
 3 1 3 11.14 8
 4 0 0 10.98 1
 4 0 1 10.87 5
 1 2 6 10.56 4

# End of data set 528013


