##############################################################################
#                                                                            #
# F-H-Hf-O         # HfF4[H2O]3                                    #  383843 #
#                                                                            #
##############################################################################
#                                                                            #
#                           Pearson's Crystal Data                           #
#      Crystal Structure Database for Inorganic Compounds (on DVD)           #
#                              Release 2017/18                               #
#                  Editors: Pierre Villars and Karin Cenzual                 #
#                                                                            #
#   Copyright (c) ASM International & Material Phases Data System (MPDS),    #
# Switzerland & National Institute for Materials Science (NIMS), Japan, 2017 #
#                   All rights reserved. Version 2017.08                     #
#                                                                            #
#   This copy of Pearson's Crystal Data is licensed to:                      #
#   University of Alberta, Chemistry Department, 1-5 Installations License         #
#                                                                            #
##############################################################################

data_383843
_audit_creation_date                     2017-12-01
_audit_creation_method
;
Pearson's Crystal Data browser
;
#_database_code_PCD                      383843

# Entry summary

_chemical_formula_structural             'Hf F~4~ [H~2~ O]~3~'
_chemical_formula_sum                    'F4 H6 Hf O3'
_chemical_name_mineral                   ?
_chemical_compound_source                ?
_chemical_name_structure_type            HfF~4~[H~2~O]~3~,mP32,14
_chemical_formula_weight                 308.5

# Bibliographic data

_publ_section_title
;
The crystal structure of catena-di-\m-fluorodifluorodiaquohafnium(IV) monohydrate, HfF~4~.3H~2~O
;
_journal_coden_ASTM                      JINCAO
_journal_name_full                       'J. Inorg. Nucl. Chem.'
_journal_year                            1971
_journal_volume                          33
_journal_page_first                      2395
_journal_page_last                       2401
_journal_language                        English
loop_
 _publ_author_name
 _publ_author_address
'Hall D.'
;
Auckland University
Department of Chemistry
Auckland
New Zealand
;
'Rickard C.E.F.'
;
Auckland University
Department of Chemistry
Auckland
New Zealand
;
'Waters T.N.'
;
Auckland University
Department of Chemistry
Auckland
New Zealand
;

# Standardized crystallographic data

_cell_length_a                           6.69
_cell_length_b                           10.55
_cell_length_c                           7.74
_cell_angle_alpha                        90
_cell_angle_beta                         100.
_cell_angle_gamma                        90
_cell_volume                             538
_cell_formula_units_Z                    4
_space_group_IT_number                   14
_space_group_name_H-M_alt                'P 1 21/c 1'
loop_
 _space_group_symop_id
 _space_group_symop_operation_xyz
 1 'x, y, z'
 2 '-x, -y, -z'
 3 '-x, 1/2+y, 1/2-z'
 4 'x, 1/2-y, 1/2+z'
loop_
 _atom_type_symbol
 F
 OH2
 Hf
loop_
 _atom_site_label
 _atom_site_type_symbol
 _atom_site_symmetry_multiplicity
 _atom_site_Wyckoff_symbol
 _atom_site_fract_x
 _atom_site_fract_y
 _atom_site_fract_z
 _atom_site_occupancy
 F1 F 4 e 0.017 0.572 0.396 1
 F3 F 4 e 0.212 0.411 0.28 1
 O3 OH2 4 e 0.223 0.247 0.031 1
 O1 OH2 4 e 0.249 0.636 0.067 1
 Hf Hf 4 e 0.2589 0.0445 0.0422 1
 F4 F 4 e 0.35 0.104 0.288 1
 F2 F 4 e 0.554 0.093 0.048 1
 O2 OH2 4 e 0.758 0.375 0.286 1


_exptl_crystal_colour                    ?
_exptl_crystal_density_meas              ?
_exptl_crystal_density_diffrn            3.81
_cell_measurement_temperature            ?
_cell_measurement_radiation              'X-rays, Cu Ka'
_cell_measurement_reflns_used            ?
_diffrn_ambient_temperature              ?
_diffrn_measurement_device
'rotation and Weissenberg photographs'                                        
_diffrn_measurement_device_type          ?
_diffrn_radiation_type                   'X-rays, Cu Ka'
_diffrn_reflns_number                    ?
_exptl_absorpt_coefficient_mu            ?
_exptl_absorpt_correction_type           no
_computing_structure_solution            'Patterson synthesis'
_refine_ls_number_parameters             ?
_refine_ls_number_reflns                 ?
_refine_ls_R_factor_gt                   0.130
_refine_ls_wR_factor_gt                  ?

# End of data set 383843


