##############################################################################
#                                                                            #
# Fe-Hf            # HfFe2 ht2                                     #  528012 #
#                                                                            #
##############################################################################
#                                                                            #
#                           Pearson's Crystal Data                           #
#      Crystal Structure Database for Inorganic Compounds (on DVD)           #
#                              Release 2017/18                               #
#                  Editors: Pierre Villars and Karin Cenzual                 #
#                                                                            #
#   Copyright (c) ASM International & Material Phases Data System (MPDS),    #
# Switzerland & National Institute for Materials Science (NIMS), Japan, 2017 #
#                   All rights reserved. Version 2017.08                     #
#                                                                            #
#   This copy of Pearson's Crystal Data is licensed to:                      #
#   University of Alberta, Chemistry Department, 1-5 Installations License         #
#                                                                            #
##############################################################################

data_528012
_audit_creation_date                     2017-12-01
_audit_creation_method
;
Pearson's Crystal Data browser
;
#_database_code_PCD                      528012

# Entry summary

_chemical_formula_structural             'Hf Fe~2~'
_chemical_formula_sum                    'Fe2 Hf'
_chemical_name_mineral                   ?
_chemical_compound_source                ?
_chemical_name_structure_type            MgNi~2~,hP24,194
_chemical_formula_weight                 290.2

# Bibliographic data

_publ_section_title                      'Laves-type phases of hafnium'
_journal_coden_ASTM                      TASEA7
_journal_name_full                       'Trans. Am. Soc. Met.'
_journal_year                            1961
_journal_volume                          53
_journal_page_first                      321
_journal_page_last                       329
_journal_language                        English
loop_
 _publ_author_name
 _publ_author_address
'Elliott R.P.'
;
Illinois Chicago Armour Research Foundation
Metals Research
Chicago
U.S.A. Illinois
;

# Standardized crystallographic data

_cell_length_a                           4.968
_cell_length_b                           4.968
_cell_length_c                           16.167
_cell_angle_alpha                        90
_cell_angle_beta                         90
_cell_angle_gamma                        120
_cell_volume                             345.56
_cell_formula_units_Z                    8
_space_group_IT_number                   194
_space_group_name_H-M_alt                'P 63/m m c'
loop_
 _space_group_symop_id
 _space_group_symop_operation_xyz
 1 'x, y, z'
 2 '-x+y, -x, 1/2-z'
 3 '-x+y, -x, z'
 4 '-x+y, y, 1/2-z'
 5 '-x+y, y, z'
 6 '-x, -x+y, -z'
 7 '-x, -x+y, 1/2+z'
 8 '-x, -y, -z'
 9 '-x, -y, 1/2+z'
 10 '-y, -x, 1/2-z'
 11 '-y, -x, z'
 12 '-y, x-y, 1/2-z'
 13 '-y, x-y, z'
 14 'x, x-y, 1/2-z'
 15 'x, x-y, z'
 16 'x, y, 1/2-z'
 17 'x-y, -y, -z'
 18 'x-y, -y, 1/2+z'
 19 'x-y, x, -z'
 20 'x-y, x, 1/2+z'
 21 'y, -x+y, -z'
 22 'y, -x+y, 1/2+z'
 23 'y, x, -z'
 24 'y, x, 1/2+z'
loop_
 _atom_type_symbol
 Fe
 Hf
loop_
 _atom_site_label
 _atom_site_type_symbol
 _atom_site_symmetry_multiplicity
 _atom_site_Wyckoff_symbol
 _atom_site_fract_x
 _atom_site_fract_y
 _atom_site_fract_z
 _atom_site_occupancy
 Fe3 Fe 6 h 0.167 0.334 0.25 1
 Fe2 Fe 6 g 0.5 0 0 1
 Fe1 Fe 4 f 0.333333 0.666667 0.125 1
 Hf2 Hf 4 f 0.333333 0.666667 0.656 1
 Hf1 Hf 4 e 0 0 0.094 1


_exptl_crystal_colour                    ?
_exptl_crystal_density_meas              ?
_exptl_crystal_density_diffrn            11.16
_cell_measurement_temperature            ?
_cell_measurement_radiation              'X-rays, Cu Ka'
_cell_measurement_reflns_used            ?
_diffrn_ambient_temperature              ?
_diffrn_measurement_device               'automatic diffractometer'
_diffrn_measurement_device_type          ?
_diffrn_radiation_type                   'X-rays, Cu Ka'
_diffrn_reflns_number                    ?
_exptl_absorpt_coefficient_mu            ?
_exptl_absorpt_correction_type           ?
_computing_structure_solution            ?
_refine_ls_number_parameters             ?
_refine_ls_number_reflns                 ?
_refine_ls_R_factor_gt                   ?
_refine_ls_wR_factor_gt                  ?
_pd_proc_ls_proof_R_factor               ?
_pd_proc_ls_proof_wR_factor              ?
_refine_ls_R_I_factor                    ?

# Published diffraction lines

loop_
 _refln_index_h
 _refln_index_k
 _refln_index_l
 _refln_d_spacing
 _refln_intensity_meas
 1 0 0 42.44 0.5
 1 0 1 41.36 0.5
 0 0 4 39.98 1
 1 0 2 37.85 0.5
 1 0 5 25.76 0.25
 1 1 0 24.72 8
 1 0 6 22.77 7
 2 0 0 21.38 0.5
 2 0 1 21.23 0.5
 1 1 4 21.02 10
 2 0 2 20.74 6
 0 0 8 20.17 2
 2 0 6 16.77 2
 2 1 0 16.18 1
 2 1 1 16.12 1
 2 1 2 15.91 1
 1 0 10 15.11 4
 1 2 5 14.52 2
 3 0 0 14.32 6
 2 1 6 13.91 7
 0 0 12 13.5 7
 2 0 10 12.92 6
 2 2 0 12.41 7
 1 1 12 11.85 5
 1 2 10 11.46 5
 3 0 9 11.18 3
 2 1 11 10.9 8
 4 0 1 10.73 2
 4 0 2 10.66 3
 2 2 8 10.59 3
 0 0 16 10.12 1
 4 0 6 9.998 2
 3 2 0 9.855 2

# End of data set 528012


