##############################################################################
#                                                                            #
# Fe-Ge-Hf         # HfFeGe                                        # 1010066 #
#                                                                            #
##############################################################################
#                                                                            #
#                           Pearson's Crystal Data                           #
#      Crystal Structure Database for Inorganic Compounds (on DVD)           #
#                              Release 2017/18                               #
#                  Editors: Pierre Villars and Karin Cenzual                 #
#                                                                            #
#   Copyright (c) ASM International & Material Phases Data System (MPDS),    #
# Switzerland & National Institute for Materials Science (NIMS), Japan, 2017 #
#                   All rights reserved. Version 2017.08                     #
#                                                                            #
#   This copy of Pearson's Crystal Data is licensed to:                      #
#   University of Alberta, Chemistry Department, 1-5 Installations License         #
#                                                                            #
##############################################################################

data_1010066
_audit_creation_date                     2017-12-04
_audit_creation_method
;
Pearson's Crystal Data browser
;
#_database_code_PCD                      1010066

# Entry summary

_chemical_formula_structural             'Hf Fe Ge'
_chemical_formula_sum                    'Fe Ge Hf'
_chemical_name_mineral                   ?
_chemical_compound_source                ?
_chemical_name_structure_type            ZrNiAl,hP9,189
_chemical_formula_weight                 306.9

# Bibliographic data

_publ_section_title
'Ternary Phases with TiFeSi and Ordered Fe~2~P Type Structures'               
_journal_coden_ASTM                      MTGTBF
_journal_name_full                       'Metall. Trans.'
_journal_year                            1970
_journal_volume                          1
_journal_page_first                      2963
_journal_page_last                       2965
_journal_language                        English
loop_
 _publ_author_name
 _publ_author_address
'Jeitschko W.'
;
Du Pont de Nemours and Co.
Central Research and Development Department
Wilmington
U.S.A. Delaware
;

# Standardized crystallographic data

_cell_length_a                           6.566
_cell_length_b                           6.566
_cell_length_c                           3.731
_cell_angle_alpha                        90
_cell_angle_beta                         90
_cell_angle_gamma                        120
_cell_volume                             139.3
_cell_formula_units_Z                    3
_space_group_IT_number                   189
_space_group_name_H-M_alt                'P -6 2 m'
loop_
 _space_group_symop_id
 _space_group_symop_operation_xyz
 1 'x, y, z'
 2 '-x+y, -x, -z'
 3 '-x+y, -x, z'
 4 '-x, -x+y, -z'
 5 '-x, -x+y, z'
 6 '-y, x-y, -z'
 7 '-y, x-y, z'
 8 'x, y, -z'
 9 'x-y, -y, -z'
 10 'x-y, -y, z'
 11 'y, x, -z'
 12 'y, x, z'
loop_
 _atom_type_symbol
 Fe
 Hf
 Ge
loop_
 _atom_site_label
 _atom_site_type_symbol
 _atom_site_symmetry_multiplicity
 _atom_site_Wyckoff_symbol
 _atom_site_fract_x
 _atom_site_fract_y
 _atom_site_fract_z
 _atom_site_occupancy
 Fe Fe 3 g 0.245 0 0.5 1
 Hf Hf 3 f 0.57 0 0 1
 Ge1 Ge 2 d 0.333333 0.666667 0.5 1
 Ge2 Ge 1 a 0 0 0 1


_exptl_crystal_colour                    ?
_exptl_crystal_density_meas              ?
_exptl_crystal_density_diffrn            10.98
_cell_measurement_temperature            ?
_cell_measurement_radiation              'X-rays, Cu Ka'
_cell_measurement_reflns_used            ?
_diffrn_ambient_temperature              ?
_diffrn_measurement_device               'Guinier-de Wolff film'
_diffrn_measurement_device_type          ?
_diffrn_radiation_type                   'X-rays, Cu Ka'
_diffrn_reflns_number                    ?
_exptl_absorpt_coefficient_mu            ?
_exptl_absorpt_correction_type           ?
_computing_structure_solution            'starting values from the literature'
_refine_ls_number_parameters             ?
_refine_ls_number_reflns                 ?
_refine_ls_R_factor_gt                   ?
_refine_ls_wR_factor_gt                  ?
_pd_proc_ls_proof_R_factor               ?
_pd_proc_ls_proof_wR_factor              ?
_refine_ls_R_I_factor                    ?

# Published diffraction lines

loop_
 _refln_index_h
 _refln_index_k
 _refln_index_l
 _refln_d_spacing
 _refln_intensity_meas
 1 0 0 56.863 3
 0 0 1 37.31 5
 1 1 0 32.83 5
 1 0 1 31.195 0.5
 2 0 0 28.432 8
 1 1 1 24.647 10
 2 0 1 22.614 10
 2 1 0 21.492 8
 3 0 0 18.954 5
 0 0 2 18.655 8
 2 1 1 18.623 ?
 1 0 2 17.725 0.5
 3 0 1 16.899 0.5
 2 2 0 16.415 3
 1 1 2 16.219 2
 3 1 0 15.771 7
 2 0 2 15.597 5
 2 2 1 15.025 2
 3 1 1 14.527 8
 4 0 0 14.216 0.5
 2 1 2 14.088 7
 3 0 2 13.296 5
 4 0 1 13.284 ?

# End of data set 1010066


