##############################################################################
#                                                                            #
# Hf-Ni            # HfNi3 rt                                      #  542168 #
#                                                                            #
##############################################################################
#                                                                            #
#                           Pearson's Crystal Data                           #
#      Crystal Structure Database for Inorganic Compounds (on DVD)           #
#                              Release 2017/18                               #
#                  Editors: Pierre Villars and Karin Cenzual                 #
#                                                                            #
#   Copyright (c) ASM International & Material Phases Data System (MPDS),    #
# Switzerland & National Institute for Materials Science (NIMS), Japan, 2017 #
#                   All rights reserved. Version 2017.08                     #
#                                                                            #
#   This copy of Pearson's Crystal Data is licensed to:                      #
#   University of Alberta, Chemistry Department, 1-5 Installations License         #
#                                                                            #
##############################################################################

data_542168
_audit_creation_date                     2017-12-04
_audit_creation_method
;
Pearson's Crystal Data browser
;
#_database_code_PCD                      542168

# Entry summary

_chemical_formula_structural             'Hf Ni~3~'
_chemical_formula_sum                    'Hf Ni3'
_chemical_name_mineral                   ?
_chemical_compound_source                ?
_chemical_name_structure_type            Ta(Rh~0.33~Pd~0.67~)~3~,hP40,194
_chemical_formula_weight                 354.6

# Bibliographic data

_publ_section_title
'The Crystal Structures of Two Modifications of HfNi~3~'                      
_journal_coden_ASTM                      ACBCAR
_journal_name_full                       'Acta Crystallogr. B'
_journal_year                            1978
_journal_volume                          34
_journal_page_first                      3201
_journal_page_last                       3204
_journal_language                        English
loop_
 _publ_author_name
 _publ_author_address
'Bsenko L.'
;
Uppsala University
Institute of Chemistry
Uppsala
Sweden
;

# Standardized crystallographic data

_cell_length_a                           5.2822
_cell_length_b                           5.2822
_cell_length_c                           21.3916
_cell_angle_alpha                        90
_cell_angle_beta                         90
_cell_angle_gamma                        120
_cell_volume                             516.9
_cell_formula_units_Z                    10
_space_group_IT_number                   194
_space_group_name_H-M_alt                'P 63/m m c'
loop_
 _space_group_symop_id
 _space_group_symop_operation_xyz
 1 'x, y, z'
 2 '-x+y, -x, 1/2-z'
 3 '-x+y, -x, z'
 4 '-x+y, y, 1/2-z'
 5 '-x+y, y, z'
 6 '-x, -x+y, -z'
 7 '-x, -x+y, 1/2+z'
 8 '-x, -y, -z'
 9 '-x, -y, 1/2+z'
 10 '-y, -x, 1/2-z'
 11 '-y, -x, z'
 12 '-y, x-y, 1/2-z'
 13 '-y, x-y, z'
 14 'x, x-y, 1/2-z'
 15 'x, x-y, z'
 16 'x, y, 1/2-z'
 17 'x-y, -y, -z'
 18 'x-y, -y, 1/2+z'
 19 'x-y, x, -z'
 20 'x-y, x, 1/2+z'
 21 'y, -x+y, -z'
 22 'y, -x+y, 1/2+z'
 23 'y, x, -z'
 24 'y, x, 1/2+z'
loop_
 _atom_type_symbol
 Ni
 Hf
loop_
 _atom_site_label
 _atom_site_type_symbol
 _atom_site_symmetry_multiplicity
 _atom_site_Wyckoff_symbol
 _atom_site_fract_x
 _atom_site_fract_y
 _atom_site_fract_z
 _atom_site_occupancy
 Ni(3) Ni 12 k 0.1684 0.3368 0.1495 1
 Ni(2) Ni 12 k 0.156 0.312 0.5514 1
 Ni(1) Ni 6 h 0.4883 -0.0234 0.25 1
 Hf(3) Hf 4 f 0.333333 0.666667 0.0458 1
 Hf(2) Hf 4 f 0.333333 0.666667 0.6512 1
 Hf(1) Hf 2 b 0 0 0.25 1


_exptl_crystal_colour                    ?
_exptl_crystal_density_meas              ?
_exptl_crystal_density_diffrn            11.39
_cell_measurement_temperature            293
_cell_measurement_radiation              'X-rays, Cu Ka1'
_cell_measurement_wavelength             1.54059
_pd_proc_wavelength                      1.54059
_cell_measurement_reflns_used            ?
_diffrn_ambient_temperature              293
_diffrn_measurement_device               'automatic diffractometer'
_diffrn_measurement_device_type          'Enraf-Nonius CAD4F'
_diffrn_radiation_type                   'X-rays, Mo Ka'
_diffrn_radiation_wavelength             0.71069
_diffrn_reflns_number                    ?
_exptl_absorpt_coefficient_mu            ?
_exptl_absorpt_correction_type           ?
_computing_structure_solution            'starting values from the literature'
_refine_ls_number_parameters             ?
_refine_ls_number_reflns                 431
_refine_ls_R_factor_gt                   0.098
_refine_ls_wR_factor_gt                  ?

# End of data set 542168


