##############################################################################
#                                                                            #
# Hf-O             # HfO2 rt                                       #  528719 #
#                                                                            #
##############################################################################
#                                                                            #
#                           Pearson's Crystal Data                           #
#      Crystal Structure Database for Inorganic Compounds (on DVD)           #
#                              Release 2017/18                               #
#                  Editors: Pierre Villars and Karin Cenzual                 #
#                                                                            #
#   Copyright (c) ASM International & Material Phases Data System (MPDS),    #
# Switzerland & National Institute for Materials Science (NIMS), Japan, 2017 #
#                   All rights reserved. Version 2017.08                     #
#                                                                            #
#   This copy of Pearson's Crystal Data is licensed to:                      #
#   University of Alberta, Chemistry Department, 1-5 Installations License         #
#                                                                            #
##############################################################################

data_528719
_audit_creation_date                     2017-12-01
_audit_creation_method
;
Pearson's Crystal Data browser
;
#_database_code_PCD                      528719

# Entry summary

_chemical_formula_structural             'Hf O~2~'
_chemical_formula_sum                    'Hf O2'
_chemical_name_mineral                   ?
_chemical_compound_source                synthetic
_chemical_name_structure_type            ZrO~2~-b,mP12,14
_chemical_formula_weight                 210.5

# Bibliographic data

_publ_section_title
;
X-ray diffraction study of hafnia under high pressure using synchrotron radiation
;
_journal_coden_ASTM                      JPCSAW
_journal_name_full                       'J. Phys. Chem. Solids'
_journal_year                            1991
_journal_volume                          52
_journal_page_first                      1181
_journal_page_last                       1186
_journal_language                        English
loop_
 _publ_author_name
 _publ_author_address
'Adams D.M.'
;
Leicester University
Department of Chemistry
Leicester
United Kingdom
;
'Leonard S.R.'
;
Leicester University
Department of Chemistry
Leicester
United Kingdom
;
'Russell D.R.'
;
Leicester University
Department of Chemistry
Leicester
United Kingdom
;

# Standardized crystallographic data

_cell_length_a                           5.1187
_cell_length_b                           5.1693
_cell_length_c                           5.297
_cell_angle_alpha                        90
_cell_angle_beta                         99.18
_cell_angle_gamma                        90
_cell_volume                             138.36
_cell_formula_units_Z                    4
_space_group_IT_number                   14
_space_group_name_H-M_alt                'P 1 21/c 1'
loop_
 _space_group_symop_id
 _space_group_symop_operation_xyz
 1 'x, y, z'
 2 '-x, -y, -z'
 3 '-x, 1/2+y, 1/2-z'
 4 'x, 1/2-y, 1/2+z'
loop_
 _atom_type_symbol
 O
 Hf
loop_
 _atom_site_label
 _atom_site_type_symbol
 _atom_site_symmetry_multiplicity
 _atom_site_Wyckoff_symbol
 _atom_site_fract_x
 _atom_site_fract_y
 _atom_site_fract_z
 _atom_site_occupancy
 O1 O 4 e 0.0709 0.3319 0.3438 1
 Hf Hf 4 e 0.2764 0.0402 0.2074 1
 O2 O 4 e 0.5536 0.2554 0.0204 1


_exptl_crystal_colour                    ?
_exptl_crystal_density_meas              ?
_exptl_crystal_density_diffrn            10.10
_cell_measurement_temperature            ?
_cell_measurement_pressure               2.6e+006
_cell_measurement_radiation              X-rays
_cell_measurement_reflns_used            ?
_diffrn_ambient_temperature              ?
_diffrn_measurement_device               diffractometer
_diffrn_measurement_device_type          ?
_diffrn_radiation_type                   X-rays
_diffrn_reflns_number                    ?
_exptl_absorpt_coefficient_mu            ?
_exptl_absorpt_correction_type           ?
_computing_structure_solution            ?
_refine_ls_number_parameters             ?
_refine_ls_number_reflns                 ?
_refine_ls_R_factor_gt                   0.0448
_refine_ls_wR_factor_gt                  0.1091

# End of data set 528719


