##############################################################################
#                                                                            #
# Hf-O             # HfO2 rt                                       #  541557 #
#                                                                            #
##############################################################################
#                                                                            #
#                           Pearson's Crystal Data                           #
#      Crystal Structure Database for Inorganic Compounds (on DVD)           #
#                              Release 2017/18                               #
#                  Editors: Pierre Villars and Karin Cenzual                 #
#                                                                            #
#   Copyright (c) ASM International & Material Phases Data System (MPDS),    #
# Switzerland & National Institute for Materials Science (NIMS), Japan, 2017 #
#                   All rights reserved. Version 2017.08                     #
#                                                                            #
#   This copy of Pearson's Crystal Data is licensed to:                      #
#   University of Alberta, Chemistry Department, 1-5 Installations License         #
#                                                                            #
##############################################################################

data_541557
_audit_creation_date                     2017-12-04
_audit_creation_method
;
Pearson's Crystal Data browser
;
#_database_code_PCD                      541557

# Entry summary

_chemical_formula_structural             'Hf O~2~'
_chemical_formula_sum                    'Hf O2'
_chemical_name_mineral                   ?
_chemical_compound_source                ?
_chemical_name_structure_type            ZrO~2~-b,mP12,14
_chemical_formula_weight                 210.5

# Bibliographic data

_publ_section_title
;
Crystal structure of monoclinic hafnia and comparison with monoclinic zirconia
;
_journal_coden_ASTM                      JACTAW
_journal_name_full                       'J. Am. Ceram. Soc.'
_journal_year                            1970
_journal_volume                          53
_journal_page_first                      126
_journal_page_last                       129
_journal_language                        English
loop_
 _publ_author_name
 _publ_author_address
'Ruh R.'
;
U.S. Air Force Systems Command
Air Force Materials Laboratory
Tempe
U.S.A. Arizona
;
'Corfield P.W.R.'
;
Ohio Columbus University
Department of Chemistry
Columbus
U.S.A. Ohio
;

# Standardized crystallographic data

_cell_length_a                           5.1156
_cell_length_b                           5.1722
_cell_length_c                           5.2948
_cell_angle_alpha                        90
_cell_angle_beta                         99.18
_cell_angle_gamma                        90
_cell_volume                             138.3
_cell_formula_units_Z                    4
_space_group_IT_number                   14
_space_group_name_H-M_alt                'P 1 21/c 1'
loop_
 _space_group_symop_id
 _space_group_symop_operation_xyz
 1 'x, y, z'
 2 '-x, -y, -z'
 3 '-x, 1/2+y, 1/2-z'
 4 'x, 1/2-y, 1/2+z'
loop_
 _atom_type_symbol
 O
 Hf
loop_
 _atom_site_label
 _atom_site_type_symbol
 _atom_site_symmetry_multiplicity
 _atom_site_Wyckoff_symbol
 _atom_site_fract_x
 _atom_site_fract_y
 _atom_site_fract_z
 _atom_site_occupancy
 OI O 4 e 0.073 0.346 0.332 1
 Hf Hf 4 e 0.2759 0.0412 0.2078 1
 OII O 4 e 0.554 0.248 0.012 1


_exptl_crystal_colour                    ?
_exptl_crystal_density_meas              ?
_exptl_crystal_density_diffrn            10.11
_cell_measurement_temperature            ?
_cell_measurement_radiation              'X-rays, Mo Ka'
_cell_measurement_reflns_used            ?
_diffrn_ambient_temperature              ?
_diffrn_measurement_device               'Weissenberg photographs'
_diffrn_measurement_device_type          ?
_diffrn_radiation_type                   'X-rays, Mo Ka'
_diffrn_reflns_number                    388
_exptl_absorpt_coefficient_mu            79.0
_exptl_absorpt_correction_type           cylindrical
_computing_structure_solution            'starting values from the literature'
_refine_ls_number_parameters             ?
_refine_ls_number_reflns                 ?
_refine_ls_R_factor_gt                   0.101
_refine_ls_wR_factor_gt                  0.150

# End of data set 541557


