##############################################################################
#                                                                            #
# Hf-O             # HfO2 rt                                       #  541560 #
#                                                                            #
##############################################################################
#                                                                            #
#                           Pearson's Crystal Data                           #
#      Crystal Structure Database for Inorganic Compounds (on DVD)           #
#                              Release 2017/18                               #
#                  Editors: Pierre Villars and Karin Cenzual                 #
#                                                                            #
#   Copyright (c) ASM International & Material Phases Data System (MPDS),    #
# Switzerland & National Institute for Materials Science (NIMS), Japan, 2017 #
#                   All rights reserved. Version 2017.08                     #
#                                                                            #
#   This copy of Pearson's Crystal Data is licensed to:                      #
#   University of Alberta, Chemistry Department, 1-5 Installations License         #
#                                                                            #
##############################################################################

data_541560
_audit_creation_date                     2017-12-04
_audit_creation_method
;
Pearson's Crystal Data browser
;
#_database_code_PCD                      541560

# Entry summary

_chemical_formula_structural             'Hf O~2~'
_chemical_formula_sum                    'Hf O2'
_chemical_name_mineral                   ?
_chemical_compound_source                ?
_chemical_name_structure_type            ZrO~2~-b,mP12,14
_chemical_formula_weight                 210.5

# Bibliographic data

_publ_section_title
;
Monoclinic crystal structures of ZrO~2~ and HfO~2~ refined from X-ray powder diffraction data
;
_journal_coden_ASTM                      JACTAW
_journal_name_full                       'J. Am. Ceram. Soc.'
_journal_year                            1985
_journal_volume                          68
_journal_page_first                      C285
_journal_page_last                       C286
_journal_language                        English
loop_
 _publ_author_name
 _publ_author_address
'Hann R.E.'
;
Georgia Atlanta Institute of Technology
School of Materials and Engineering
Atlanta
U.S.A. Georgia
;
'Suitch P.R.'
;
Georgia Atlanta Institute of Technology
School of Materials and Engineering
Atlanta
U.S.A. Georgia
;
'Pentecost J.L.'
;
Georgia Atlanta Institute of Technology
School of Materials and Engineering
Atlanta
U.S.A. Georgia
;

# Standardized crystallographic data

_cell_length_a                           5.117
_cell_length_b                           5.1754
_cell_length_c                           5.2915
_cell_angle_alpha                        90
_cell_angle_beta                         99.216
_cell_angle_gamma                        90
_cell_volume                             138.32
_cell_formula_units_Z                    4
_space_group_IT_number                   14
_space_group_name_H-M_alt                'P 1 21/c 1'
loop_
 _space_group_symop_id
 _space_group_symop_operation_xyz
 1 'x, y, z'
 2 '-x, -y, -z'
 3 '-x, 1/2+y, 1/2-z'
 4 'x, 1/2-y, 1/2+z'
loop_
 _atom_type_symbol
 O
 Hf
loop_
 _atom_site_label
 _atom_site_type_symbol
 _atom_site_symmetry_multiplicity
 _atom_site_Wyckoff_symbol
 _atom_site_fract_x
 _atom_site_fract_y
 _atom_site_fract_z
 _atom_site_occupancy
 OI O 4 e 0.0739 0.3318 0.3466 1
 Hf Hf 4 e 0.2755 0.0397 0.208 1
 OII O 4 e 0.5511 0.2582 0.02 1


_exptl_crystal_colour                    ?
_exptl_crystal_density_meas              ?
_exptl_crystal_density_diffrn            10.11
_cell_measurement_temperature            ?
_cell_measurement_radiation              'X-rays, Cu Ka'
_cell_measurement_reflns_used            ?
_diffrn_ambient_temperature              ?
_diffrn_measurement_device               'automatic diffractometer'
_diffrn_measurement_device_type          ?
_diffrn_radiation_type                   'X-rays, Cu Ka'
_diffrn_reflns_number                    ?
_diffrn_reflns_theta_min                 11
_diffrn_reflns_theta_max                 75
_pd_proc_2theta_range_min                22
_pd_proc_2theta_range_max                150
_exptl_absorpt_coefficient_mu            ?
_exptl_absorpt_correction_type           ?
_computing_structure_solution            'starting values from the literature'
_refine_ls_number_parameters             ?
_refine_ls_number_reflns                 ?
_refine_ls_R_factor_gt                   ?
_refine_ls_wR_factor_gt                  ?
_pd_proc_ls_proof_R_factor               0.0705
_pd_proc_ls_proof_wR_factor              0.0961
_refine_ls_R_I_factor                    0.0106

# End of data set 541560


