##############################################################################
#                                                                            #
# As-Hf-Os         # HfOsAs                                        #  537784 #
#                                                                            #
##############################################################################
#                                                                            #
#                           Pearson's Crystal Data                           #
#      Crystal Structure Database for Inorganic Compounds (on DVD)           #
#                              Release 2017/18                               #
#                  Editors: Pierre Villars and Karin Cenzual                 #
#                                                                            #
#   Copyright (c) ASM International & Material Phases Data System (MPDS),    #
# Switzerland & National Institute for Materials Science (NIMS), Japan, 2017 #
#                   All rights reserved. Version 2017.08                     #
#                                                                            #
#   This copy of Pearson's Crystal Data is licensed to:                      #
#   University of Alberta, Chemistry Department, 1-5 Installations License         #
#                                                                            #
##############################################################################

data_537784
_audit_creation_date                     2017-12-04
_audit_creation_method
;
Pearson's Crystal Data browser
;
#_database_code_PCD                      537784

# Entry summary

_chemical_formula_structural             'Hf Os As'
_chemical_formula_sum                    'As Hf Os'
_chemical_name_mineral                   ?
_chemical_compound_source                ?
_chemical_name_structure_type            ZrNiAl,hP9,189
_chemical_formula_weight                 443.6

# Bibliographic data

_publ_section_title
'Superconducting equiatomic ternary transition metal arsenides'               
_journal_coden_ASTM                      MRBUAC
_journal_name_full                       'Mater. Res. Bull.'
_journal_year                            1983
_journal_volume                          18
_journal_page_first                      983
_journal_page_last                       991
_journal_language                        English
loop_
 _publ_author_name
 _publ_author_address
'Meisner G.P.'
;
California La Jolla San Diego University
Institute for Pure and Applied Physical Sciences
La Jolla
U.S.A. California
;
'Ku H.C.'
;
California La Jolla San Diego University
Institute for Pure and Applied Physical Sciences
La Jolla
U.S.A. California
;
'Barz H.'
;
AT and T Bell Laboratories Inc.
Murray Hill
U.S.A. New Jersey
;

# Standardized crystallographic data

_cell_length_a                           6.569
_cell_length_b                           6.569
_cell_length_c                           3.808
_cell_angle_alpha                        90
_cell_angle_beta                         90
_cell_angle_gamma                        120
_cell_volume                             142.3
_cell_formula_units_Z                    3
_space_group_IT_number                   189
_space_group_name_H-M_alt                'P -6 2 m'
loop_
 _space_group_symop_id
 _space_group_symop_operation_xyz
 1 'x, y, z'
 2 '-x+y, -x, -z'
 3 '-x+y, -x, z'
 4 '-x, -x+y, -z'
 5 '-x, -x+y, z'
 6 '-y, x-y, -z'
 7 '-y, x-y, z'
 8 'x, y, -z'
 9 'x-y, -y, -z'
 10 'x-y, -y, z'
 11 'y, x, -z'
 12 'y, x, z'

# Atomic positions taken from type-defining entry

loop_
 _atom_type_symbol
 Os
 Hf
 As
loop_
 _atom_site_label
 _atom_site_type_symbol
 _atom_site_symmetry_multiplicity
 _atom_site_Wyckoff_symbol
 _atom_site_fract_x
 _atom_site_fract_y
 _atom_site_fract_z
 _atom_site_occupancy
 Os1 Os 3 g 0.2505 0 0.5 1
 Hf1 Hf 3 f 0.5925 0 0 1
 As1 As 2 d 0.333333 0.666667 0.5 1
 As2 As 1 a 0 0 0 1


_exptl_crystal_colour                    ?
_exptl_crystal_density_meas              ?
_exptl_crystal_density_diffrn            15.53
_cell_measurement_temperature            ?
_cell_measurement_radiation              'X-rays, Cu Ka'
_cell_measurement_reflns_used            ?
_diffrn_ambient_temperature              ?
_diffrn_measurement_device               'automatic diffractometer'
_diffrn_measurement_device_type          ?
_diffrn_radiation_type                   ?
_diffrn_reflns_number                    ?
_exptl_absorpt_coefficient_mu            ?
_exptl_absorpt_correction_type           ?
_computing_structure_solution            ?
_refine_ls_number_parameters             ?
_refine_ls_number_reflns                 ?
_refine_ls_R_factor_gt                   ?
_refine_ls_wR_factor_gt                  ?

# End of data set 537784


