##############################################################################
#                                                                            #
# Hf-P             # HfP                                           #  532824 #
#                                                                            #
##############################################################################
#                                                                            #
#                           Pearson's Crystal Data                           #
#      Crystal Structure Database for Inorganic Compounds (on DVD)           #
#                              Release 2017/18                               #
#                  Editors: Pierre Villars and Karin Cenzual                 #
#                                                                            #
#   Copyright (c) ASM International & Material Phases Data System (MPDS),    #
# Switzerland & National Institute for Materials Science (NIMS), Japan, 2017 #
#                   All rights reserved. Version 2017.08                     #
#                                                                            #
#   This copy of Pearson's Crystal Data is licensed to:                      #
#   University of Alberta, Chemistry Department, 1-5 Installations License         #
#                                                                            #
##############################################################################

data_532824
_audit_creation_date                     2017-12-04
_audit_creation_method
;
Pearson's Crystal Data browser
;
#_database_code_PCD                      532824

# Entry summary

_chemical_formula_structural             'Hf P'
_chemical_formula_sum                    'Hf P'
_chemical_name_mineral                   ?
_chemical_compound_source                ?
_chemical_name_structure_type            TiP,hP8,194
_chemical_formula_weight                 209.5

# Bibliographic data

_publ_section_title                      'Die Struktur von HfP'
_journal_coden_ASTM                      MOCMB7
_journal_name_full                       'Monatsh. Chem.'
_journal_year                            1962
_journal_volume                          93
_journal_page_first                      1107
_journal_page_last                       1109
_journal_language                        German
loop_
 _publ_author_name
 _publ_author_address
'Jeitschko W.'
;
Vienna University
Institut f\"ur Physikalische Chemie
Vienna
Austria
;
'Nowotny H.'
;
Vienna University
Institut f\"ur Physikalische Chemie
Vienna
Austria
;

# Standardized crystallographic data

_cell_length_a                           3.65
_cell_length_b                           3.65
_cell_length_c                           12.37
_cell_angle_alpha                        90
_cell_angle_beta                         90
_cell_angle_gamma                        120
_cell_volume                             142.72
_cell_formula_units_Z                    4
_space_group_IT_number                   194
_space_group_name_H-M_alt                'P 63/m m c'
loop_
 _space_group_symop_id
 _space_group_symop_operation_xyz
 1 'x, y, z'
 2 '-x+y, -x, 1/2-z'
 3 '-x+y, -x, z'
 4 '-x+y, y, 1/2-z'
 5 '-x+y, y, z'
 6 '-x, -x+y, -z'
 7 '-x, -x+y, 1/2+z'
 8 '-x, -y, -z'
 9 '-x, -y, 1/2+z'
 10 '-y, -x, 1/2-z'
 11 '-y, -x, z'
 12 '-y, x-y, 1/2-z'
 13 '-y, x-y, z'
 14 'x, x-y, 1/2-z'
 15 'x, x-y, z'
 16 'x, y, 1/2-z'
 17 'x-y, -y, -z'
 18 'x-y, -y, 1/2+z'
 19 'x-y, x, -z'
 20 'x-y, x, 1/2+z'
 21 'y, -x+y, -z'
 22 'y, -x+y, 1/2+z'
 23 'y, x, -z'
 24 'y, x, 1/2+z'
loop_
 _atom_type_symbol
 Hf
 P
loop_
 _atom_site_label
 _atom_site_type_symbol
 _atom_site_symmetry_multiplicity
 _atom_site_Wyckoff_symbol
 _atom_site_fract_x
 _atom_site_fract_y
 _atom_site_fract_z
 _atom_site_occupancy
 Hf Hf 4 f 0.333333 0.666667 0.616 1
 P2 P 2 c 0.333333 0.666667 0.25 1
 P1 P 2 a 0 0 0 1


_exptl_crystal_colour                    ?
_exptl_crystal_density_meas              ?
_exptl_crystal_density_diffrn            9.75
_cell_measurement_temperature            ?
_cell_measurement_radiation              'X-rays, Cu Ka'
_cell_measurement_reflns_used            ?
_diffrn_ambient_temperature              ?
_diffrn_measurement_device               'Debye-Scherrer film'
_diffrn_measurement_device_type          ?
_diffrn_radiation_type                   'X-rays, Cu Ka'
_diffrn_reflns_number                    ?
_exptl_absorpt_coefficient_mu            ?
_exptl_absorpt_correction_type           ?
_computing_structure_solution            'starting values from the literature'
_refine_ls_number_parameters             ?
_refine_ls_number_reflns                 ?
_refine_ls_R_factor_gt                   ?
_refine_ls_wR_factor_gt                  ?
_pd_proc_ls_proof_R_factor               ?
_pd_proc_ls_proof_wR_factor              ?
_refine_ls_R_I_factor                    ?

# Published diffraction lines

loop_
 _refln_index_h
 _refln_index_k
 _refln_index_l
 _refln_d_spacing
 _refln_intensity_meas
 1 0 0 542 7
 0 0 4 631 7
 1 0 2 755 3
 1 0 3 939 8
 1 0 4 1212 7
 0 0 6 1410 3
 1 0 5 1561 6
 1 1 0 1775 7
 1 0 6 1999 3
 2 0 0 2402 7
 0 0 8 2491 7
 2 0 3 2736 7
 2 0 4 3006 5
 1 0 8 3090 3
 1 1 6 3193 3
 2 0 5 3356 5
 1 0 9 3779 2
 0 0 10 3885 2
 2 1 0 4178 3
 2 1 1 4207 3

# End of data set 532824


