##############################################################################
#                                                                            #
# Hf-Pd            # HfPd3                                         #  252243 #
#                                                                            #
##############################################################################
#                                                                            #
#                           Pearson's Crystal Data                           #
#      Crystal Structure Database for Inorganic Compounds (on DVD)           #
#                              Release 2017/18                               #
#                  Editors: Pierre Villars and Karin Cenzual                 #
#                                                                            #
#   Copyright (c) ASM International & Material Phases Data System (MPDS),    #
# Switzerland & National Institute for Materials Science (NIMS), Japan, 2017 #
#                   All rights reserved. Version 2017.08                     #
#                                                                            #
#   This copy of Pearson's Crystal Data is licensed to:                      #
#   University of Alberta, Chemistry Department, 1-5 Installations License         #
#                                                                            #
##############################################################################

data_252243
_audit_creation_date                     2017-12-01
_audit_creation_method
;
Pearson's Crystal Data browser
;
#_database_code_PCD                      252243

# Entry summary

_chemical_formula_structural             'Hf Pd~3~'
_chemical_formula_sum                    'Hf Pd3'
_chemical_name_mineral                   ?
_chemical_compound_source                ?
_chemical_name_structure_type            TiNi~3~,hP16,194
_chemical_formula_weight                 497.7

# Bibliographic data

_publ_section_title
'Close-Packed Ordered Structures in Binary AB~3~ Alloys of Transition Elements'
_journal_coden_ASTM                      TMSAAB
_journal_name_full                       'Trans. Metall. Soc. AIME'
_journal_year                            1959
_journal_volume                          215
_journal_page_first                      976
_journal_page_last                       979
_journal_language                        English
loop_
 _publ_author_name
 _publ_author_address
'Dwight A.E.'
;
Argonne National Laboratory
Argonne
U.S.A. Illinois
;
'Beck P.A.'
;
Illinois Urbana-Champaign University
Department of Physical Metallurgy
Urbana-Champaign
U.S.A. Illinois
;

# Standardized crystallographic data

_cell_length_a                           5.595
_cell_length_b                           5.595
_cell_length_c                           9.192
_cell_angle_alpha                        90
_cell_angle_beta                         90
_cell_angle_gamma                        120
_cell_volume                             249.2
_cell_formula_units_Z                    4
_space_group_IT_number                   194
_space_group_name_H-M_alt                'P 63/m m c'
loop_
 _space_group_symop_id
 _space_group_symop_operation_xyz
 1 'x, y, z'
 2 '-x+y, -x, 1/2-z'
 3 '-x+y, -x, z'
 4 '-x+y, y, 1/2-z'
 5 '-x+y, y, z'
 6 '-x, -x+y, -z'
 7 '-x, -x+y, 1/2+z'
 8 '-x, -y, -z'
 9 '-x, -y, 1/2+z'
 10 '-y, -x, 1/2-z'
 11 '-y, -x, z'
 12 '-y, x-y, 1/2-z'
 13 '-y, x-y, z'
 14 'x, x-y, 1/2-z'
 15 'x, x-y, z'
 16 'x, y, 1/2-z'
 17 'x-y, -y, -z'
 18 'x-y, -y, 1/2+z'
 19 'x-y, x, -z'
 20 'x-y, x, 1/2+z'
 21 'y, -x+y, -z'
 22 'y, -x+y, 1/2+z'
 23 'y, x, -z'
 24 'y, x, 1/2+z'

# Atomic positions taken from type-defining entry

loop_
 _atom_type_symbol
 Pd
 Hf
loop_
 _atom_site_label
 _atom_site_type_symbol
 _atom_site_symmetry_multiplicity
 _atom_site_Wyckoff_symbol
 _atom_site_fract_x
 _atom_site_fract_y
 _atom_site_fract_z
 _atom_site_occupancy
 Pd1 Pd 6 h 0.16667 0.33333 0.25 1
 Pd2 Pd 6 g 0.5 0 0 1
 Hf1 Hf 2 d 0.333333 0.666667 0.75 1
 Hf2 Hf 2 a 0 0 0 1


_exptl_crystal_colour                    ?
_exptl_crystal_density_meas              ?
_exptl_crystal_density_diffrn            13.27
_cell_measurement_temperature            ?
_cell_measurement_radiation              'X-rays, Cu Ka'
_cell_measurement_reflns_used            ?
_diffrn_ambient_temperature              ?
_diffrn_measurement_device               'Debye-Scherrer film'
_diffrn_measurement_device_type          ?
_diffrn_radiation_type                   ?
_diffrn_reflns_number                    ?
_exptl_absorpt_coefficient_mu            ?
_exptl_absorpt_correction_type           ?
_computing_structure_solution            ?
_refine_ls_number_parameters             ?
_refine_ls_number_reflns                 ?
_refine_ls_R_factor_gt                   ?
_refine_ls_wR_factor_gt                  ?

# Published diffraction lines

loop_
 _refln_index_h
 _refln_index_k
 _refln_index_l
 _refln_d_spacing
 _refln_intensity_meas
 1 0 2 33.16 2
 2 0 0 24.19 2
 2 0 1 23.39 5
 0 0 4 22.95 7
 2 0 2 21.4 7
 2 0 3 18.99 6
 1 1 4 17.76 2
 2 0 4 16.66 5
 0 0 6 15.3 1
 2 0 5 14.62 7
 2 2 0 13.97 7
 3 0 4 13.19 2
 2 0 6 12.95 6
 1 0 7 12.68 2
 4 0 1 12.008 5
 2 2 4 11.947 9
 4 0 2 11.711 7
 2 0 7 11.544 7
 0 0 8 11.491 7

# End of data set 252243


