##############################################################################
#                                                                            #
# Hf-Se            # HfSe3                                         #  527617 #
#                                                                            #
##############################################################################
#                                                                            #
#                           Pearson's Crystal Data                           #
#      Crystal Structure Database for Inorganic Compounds (on DVD)           #
#                              Release 2017/18                               #
#                  Editors: Pierre Villars and Karin Cenzual                 #
#                                                                            #
#   Copyright (c) ASM International & Material Phases Data System (MPDS),    #
# Switzerland & National Institute for Materials Science (NIMS), Japan, 2017 #
#                   All rights reserved. Version 2017.08                     #
#                                                                            #
#   This copy of Pearson's Crystal Data is licensed to:                      #
#   University of Alberta, Chemistry Department, 1-5 Installations License         #
#                                                                            #
##############################################################################

data_527617
_audit_creation_date                     2017-12-01
_audit_creation_method
;
Pearson's Crystal Data browser
;
#_database_code_PCD                      527617

# Entry summary

_chemical_formula_structural             'Hf Se~3~'
_chemical_formula_sum                    'Hf Se3'
_chemical_name_mineral                   ?
_chemical_compound_source                ?
_chemical_name_structure_type            TiS~3~,mP8,11
_chemical_formula_weight                 415.4

# Bibliographic data

_publ_section_title
;
On the Crystal Structures of TiS~3~, ZrS~3~, ZrSe~3~, ZrTe~3~, HfS~3~, and HfSe~3~
;
_journal_coden_ASTM                      ACAPCT
_journal_name_full                       'Acta Chem. Scand. A'
_journal_year                            1975
_journal_volume                          29
_journal_page_first                      623
_journal_page_last                       631
_journal_language                        English
loop_
 _publ_author_name
 _publ_author_address
'Furuseth S.'
;
Oslo University
Kjemisk Institutt
Oslo
Norway
;
'Brattas L.'
;
Oslo University
Kjemisk Institutt
Oslo
Norway
;
'Kjekshus A.'
;
Oslo University
Kjemisk Institutt
Oslo
Norway
;

# Standardized crystallographic data

_cell_length_a                           5.388
_cell_length_b                           3.7216
_cell_length_c                           9.428
_cell_angle_alpha                        90
_cell_angle_beta                         97.78
_cell_angle_gamma                        90
_cell_volume                             187.31
_cell_formula_units_Z                    2
_space_group_IT_number                   11
_space_group_name_H-M_alt                'P 1 21/m 1'
loop_
 _space_group_symop_id
 _space_group_symop_operation_xyz
 1 'x, y, z'
 2 '-x, -y, -z'
 3 '-x, 1/2+y, -z'
 4 'x, 1/2-y, z'
loop_
 _atom_type_symbol
 Se
 Hf
loop_
 _atom_site_label
 _atom_site_type_symbol
 _atom_site_symmetry_multiplicity
 _atom_site_Wyckoff_symbol
 _atom_site_fract_x
 _atom_site_fract_y
 _atom_site_fract_z
 _atom_site_occupancy
 Se3 Se 2 e 0.1113 0.25 0.1673 1
 Se1 Se 2 e 0.237 0.25 0.5533 1
 Se2 Se 2 e 0.5455 0.25 0.1733 1
 Hf Hf 2 e 0.7145 0.25 0.6563 1


_exptl_crystal_colour                    ?
_exptl_crystal_density_meas              ?
_exptl_crystal_density_diffrn            7.36
_cell_measurement_temperature            ?
_cell_measurement_radiation              'X-rays, Mo Ka'
_cell_measurement_reflns_used            ?
_diffrn_ambient_temperature              ?
_diffrn_measurement_device               'Weissenberg photographs'
_diffrn_measurement_device_type          ?
_diffrn_radiation_type                   'X-rays, Mo Ka'
_diffrn_reflns_number                    401
_exptl_absorpt_coefficient_mu            ?
_exptl_absorpt_correction_type           ?
_computing_structure_solution            'Patterson and Fourier synthesis'
_refine_ls_number_parameters             ?
_refine_ls_number_reflns                 400
_refine_ls_R_factor_gt                   0.073
_refine_ls_wR_factor_gt                  ?

# End of data set 527617


