##############################################################################
#                                                                            #
# Hf-Se            # HfSe3                                         #  525729 #
#                                                                            #
##############################################################################
#                                                                            #
#                           Pearson's Crystal Data                           #
#      Crystal Structure Database for Inorganic Compounds (on DVD)           #
#                              Release 2017/18                               #
#                  Editors: Pierre Villars and Karin Cenzual                 #
#                                                                            #
#   Copyright (c) ASM International & Material Phases Data System (MPDS),    #
# Switzerland & National Institute for Materials Science (NIMS), Japan, 2017 #
#                   All rights reserved. Version 2017.08                     #
#                                                                            #
#   This copy of Pearson's Crystal Data is licensed to:                      #
#   University of Alberta, Chemistry Department, 1-5 Installations License         #
#                                                                            #
##############################################################################

data_525729
_audit_creation_date                     2017-12-01
_audit_creation_method
;
Pearson's Crystal Data browser
;
#_database_code_PCD                      525729

# Entry summary

_chemical_formula_structural             'Hf Se~3~'
_chemical_formula_sum                    'Hf Se3'
_chemical_name_mineral                   ?
_chemical_compound_source                ?
_chemical_name_structure_type            ZrSe~3~,mP8,11
_chemical_formula_weight                 415.4

# Bibliographic data

_publ_section_title
;
The sulphides, selenides, and tellurides of titanium, zirconium, hafnium, and thorium. I. Preparation and characterization
;
_journal_coden_ASTM                      AJCHAS
_journal_name_full                       'Aust. J. Chem.'
_journal_year                            1958
_journal_volume                          11
_journal_page_first                      445
_journal_page_last                       457
_journal_language                        English
loop_
 _publ_author_name
 _publ_author_address
'McTaggart F.K.'
;
Commonwealth Scientific and Industrial Research Organization (CSIRO)
Division of Industrial Chemistry
Melbourne
Australia
;
'Wadsley A.D.'
;
Commonwealth Scientific and Industrial Research Organization (CSIRO)
Division of Industrial Chemistry
Melbourne
Australia
;

# Standardized crystallographic data

_cell_length_a                           5.48
_cell_length_b                           3.72
_cell_length_c                           9.47
_cell_angle_alpha                        90
_cell_angle_beta                         98.3
_cell_angle_gamma                        90
_cell_volume                             191.03
_cell_formula_units_Z                    2
_space_group_IT_number                   11
_space_group_name_H-M_alt                'P 1 21/m 1'
loop_
 _space_group_symop_id
 _space_group_symop_operation_xyz
 1 'x, y, z'
 2 '-x, -y, -z'
 3 '-x, 1/2+y, -z'
 4 'x, 1/2-y, z'

# Atomic positions taken from type-defining entry

loop_
 _atom_type_symbol
 Hf
 Se
loop_
 _atom_site_label
 _atom_site_type_symbol
 _atom_site_symmetry_multiplicity
 _atom_site_Wyckoff_symbol
 _atom_site_fract_x
 _atom_site_fract_y
 _atom_site_fract_z
 _atom_site_occupancy
 Hf1 Hf 2 e 0.285 0.25 0.156 1
 Se1 Se 2 e 0.456 0.25 0.674 1
 Se2 Se 2 e 0.762 0.25 0.054 1
 Se3 Se 2 e 0.888 0.25 0.669 1


_exptl_crystal_colour                    'black purple'
_exptl_crystal_density_meas              ?
_exptl_crystal_density_diffrn            7.22
_cell_measurement_temperature            ?
_cell_measurement_radiation              'X-rays, Cu Ka'
_cell_measurement_reflns_used            ?
_diffrn_ambient_temperature              ?
_diffrn_measurement_device               'Straumanis film'
_diffrn_measurement_device_type          ?
_diffrn_radiation_type                   ?
_diffrn_reflns_number                    ?
_exptl_absorpt_coefficient_mu            ?
_exptl_absorpt_correction_type           ?
_computing_structure_solution            ?
_refine_ls_number_parameters             ?
_refine_ls_number_reflns                 ?
_refine_ls_R_factor_gt                   ?
_refine_ls_wR_factor_gt                  ?

# End of data set 525729


