##############################################################################
#                                                                            #
# Hf-Sn            # HfSn2                                         #  532911 #
#                                                                            #
##############################################################################
#                                                                            #
#                           Pearson's Crystal Data                           #
#      Crystal Structure Database for Inorganic Compounds (on DVD)           #
#                              Release 2017/18                               #
#                  Editors: Pierre Villars and Karin Cenzual                 #
#                                                                            #
#   Copyright (c) ASM International & Material Phases Data System (MPDS),    #
# Switzerland & National Institute for Materials Science (NIMS), Japan, 2017 #
#                   All rights reserved. Version 2017.08                     #
#                                                                            #
#   This copy of Pearson's Crystal Data is licensed to:                      #
#   University of Alberta, Chemistry Department, 1-5 Installations License         #
#                                                                            #
##############################################################################

data_532911
_audit_creation_date                     2017-12-04
_audit_creation_method
;
Pearson's Crystal Data browser
;
#_database_code_PCD                      532911

# Entry summary

_chemical_formula_structural             'Hf Sn~2~'
_chemical_formula_sum                    'Hf Sn2'
_chemical_name_mineral                   ?
_chemical_compound_source                ?
_chemical_name_structure_type            CrSi~2~,hP9,180
_chemical_formula_weight                 415.9

# Bibliographic data

_publ_section_title
'Die Kristallstruktur einiger Hafnium-haltiger Phasen'                        
_journal_coden_ASTM                      MOCMB7
_journal_name_full                       'Monatsh. Chem.'
_journal_year                            1960
_journal_volume                          91
_journal_page_first                      1174
_journal_page_last                       1184
_journal_language                        German
loop_
 _publ_author_name
 _publ_author_address
'Boller H.'
;
Vienna University
Institut f\"ur Physikalische Chemie
Vienna
Austria
;
'Nowotny H.'
;
Vienna University
Institut f\"ur Physikalische Chemie
Vienna
Austria
;
'Wittmann A.'
;
Vienna University
Institut f\"ur Physikalische Chemie
Vienna
Austria
;

# Standardized crystallographic data

_cell_length_a                           5.487
_cell_length_b                           5.487
_cell_length_c                           7.625
_cell_angle_alpha                        90
_cell_angle_beta                         90
_cell_angle_gamma                        120
_cell_volume                             198.81
_cell_formula_units_Z                    3
_space_group_IT_number                   180
_space_group_name_H-M_alt                'P 62 2 2'
loop_
 _space_group_symop_id
 _space_group_symop_operation_xyz
 1 'x, y, z'
 2 '-x+y, -x, 1/3+z'
 3 '-x+y, y, -z'
 4 '-x, -x+y, 1/3-z'
 5 '-x, -y, z'
 6 '-y, -x, -1/3-z'
 7 '-y, x-y, -1/3+z'
 8 'x, x-y, 1/3-z'
 9 'x-y, -y, -z'
 10 'x-y, x, 1/3+z'
 11 'y, -x+y, -1/3+z'
 12 'y, x, -1/3-z'

# Atomic positions taken from type-defining entry

loop_
 _atom_type_symbol
 Sn
 Hf
loop_
 _atom_site_label
 _atom_site_type_symbol
 _atom_site_symmetry_multiplicity
 _atom_site_Wyckoff_symbol
 _atom_site_fract_x
 _atom_site_fract_y
 _atom_site_fract_z
 _atom_site_occupancy
 Sn1 Sn 6 i 0.16578 0.33156 0 1
 Hf1 Hf 3 c 0.5 0 0 1


_exptl_crystal_colour                    ?
_exptl_crystal_density_meas              ?
_exptl_crystal_density_diffrn            10.42
_cell_measurement_temperature            ?
_cell_measurement_radiation              'X-rays, Cr Ka'
_cell_measurement_reflns_used            ?
_diffrn_ambient_temperature              ?
_diffrn_measurement_device               film
_diffrn_measurement_device_type          ?
_diffrn_radiation_type                   ?
_diffrn_reflns_number                    ?
_exptl_absorpt_coefficient_mu            ?
_exptl_absorpt_correction_type           ?
_computing_structure_solution            ?
_refine_ls_number_parameters             ?
_refine_ls_number_reflns                 ?
_refine_ls_R_factor_gt                   ?
_refine_ls_wR_factor_gt                  ?

# Published diffraction lines

loop_
 _refln_index_h
 _refln_index_k
 _refln_index_l
 _refln_d_spacing
 _refln_intensity_meas
 1 1 0 1759 3
 1 1 1 1977 7
 0 0 3 2033 4
 2 0 0 2336 2
 1 1 2 2653 6
 2 0 2 3323 2
 1 1 3 3773 3
 2 1 0 4080 1
 2 1 1 4304 2
 2 0 3 4356 2
 3 0 0 5236 3
 1 1 4 5358 5
 3 0 1 5462 6
 3 0 2 6134 6
 1 0 5 6227 1
 2 2 0 6978 7
 3 0 3 7262 2
 1 1 5 7386 6
 3 1 0 7545 2
 2 1 4 7679 1
 3 1 1 7810 2
 0 0 6 8133 6
 3 0 4 8841 7
 2 2 3 9014 8

# End of data set 532911


