##############################################################################
#                                                                            #
# Hf-Te            # HfTe3                                         #  526850 #
#                                                                            #
##############################################################################
#                                                                            #
#                           Pearson's Crystal Data                           #
#      Crystal Structure Database for Inorganic Compounds (on DVD)           #
#                              Release 2017/18                               #
#                  Editors: Pierre Villars and Karin Cenzual                 #
#                                                                            #
#   Copyright (c) ASM International & Material Phases Data System (MPDS),    #
# Switzerland & National Institute for Materials Science (NIMS), Japan, 2017 #
#                   All rights reserved. Version 2017.08                     #
#                                                                            #
#   This copy of Pearson's Crystal Data is licensed to:                      #
#   University of Alberta, Chemistry Department, 1-5 Installations License         #
#                                                                            #
##############################################################################

data_526850
_audit_creation_date                     2017-12-01
_audit_creation_method
;
Pearson's Crystal Data browser
;
#_database_code_PCD                      526850

# Entry summary

_chemical_formula_structural             'Hf Te~3~'
_chemical_formula_sum                    'Hf Te3'
_chemical_name_mineral                   ?
_chemical_compound_source                ?
_chemical_name_structure_type            ZrSe~3~,mP8,11
_chemical_formula_weight                 561.3

# Bibliographic data

_publ_section_title
'On the Properties of Compounds with the ZrSe~3~ Type Structure'              
_journal_coden_ASTM                      ACSAA4
_journal_name_full                       'Acta Chem. Scand.'
_journal_year                            1972
_journal_volume                          26
_journal_page_first                      3441
_journal_page_last                       3449
_journal_language                        English
loop_
 _publ_author_name
 _publ_author_address
'Brattas L.'
;
Oslo University
Kjemisk Institutt
Oslo
Norway
;
'Kjekshus A.'
;
Oslo University
Kjemisk Institutt
Oslo
Norway
;

# Standardized crystallographic data

_cell_length_a                           5.879
_cell_length_b                           3.9022
_cell_length_c                           10.056
_cell_angle_alpha                        90
_cell_angle_beta                         97.98
_cell_angle_gamma                        90
_cell_volume                             228.46
_cell_formula_units_Z                    2
_space_group_IT_number                   11
_space_group_name_H-M_alt                'P 1 21/m 1'
loop_
 _space_group_symop_id
 _space_group_symop_operation_xyz
 1 'x, y, z'
 2 '-x, -y, -z'
 3 '-x, 1/2+y, -z'
 4 'x, 1/2-y, z'

# Atomic positions taken from type-defining entry

loop_
 _atom_type_symbol
 Hf
 Te
loop_
 _atom_site_label
 _atom_site_type_symbol
 _atom_site_symmetry_multiplicity
 _atom_site_Wyckoff_symbol
 _atom_site_fract_x
 _atom_site_fract_y
 _atom_site_fract_z
 _atom_site_occupancy
 Hf1 Hf 2 e 0.285 0.25 0.156 1
 Te1 Te 2 e 0.456 0.25 0.674 1
 Te2 Te 2 e 0.762 0.25 0.054 1
 Te3 Te 2 e 0.888 0.25 0.669 1


_exptl_crystal_colour                    ?
_exptl_crystal_density_meas              8.205
_exptl_crystal_density_diffrn            8.16
_cell_measurement_temperature            ?
_cell_measurement_radiation              'X-rays, Cu Ka'
_cell_measurement_wavelength             1.5405
_pd_proc_wavelength                      1.5405
_cell_measurement_reflns_used            ?
_diffrn_ambient_temperature              ?
_diffrn_measurement_device               'Guinier film'
_diffrn_measurement_device_type          ?
_diffrn_radiation_type                   ?
_diffrn_reflns_number                    ?
_exptl_absorpt_coefficient_mu            ?
_exptl_absorpt_correction_type           ?
_computing_structure_solution            ?
_refine_ls_number_parameters             ?
_refine_ls_number_reflns                 ?
_refine_ls_R_factor_gt                   ?
_refine_ls_wR_factor_gt                  ?

# End of data set 526850


