##############################################################################
#                                                                            #
# As-Cl-Hg         # Hg2AsCl2                                      #  304087 #
#                                                                            #
##############################################################################
#                                                                            #
#                           Pearson's Crystal Data                           #
#      Crystal Structure Database for Inorganic Compounds (on DVD)           #
#                              Release 2017/18                               #
#                  Editors: Pierre Villars and Karin Cenzual                 #
#                                                                            #
#   Copyright (c) ASM International & Material Phases Data System (MPDS),    #
# Switzerland & National Institute for Materials Science (NIMS), Japan, 2017 #
#                   All rights reserved. Version 2017.08                     #
#                                                                            #
#   This copy of Pearson's Crystal Data is licensed to:                      #
#   University of Alberta, Chemistry Department, 1-5 Installations License         #
#                                                                            #
##############################################################################

data_304087
_audit_creation_date                     2017-12-01
_audit_creation_method
;
Pearson's Crystal Data browser
;
#_database_code_PCD                      304087

# Entry summary

_chemical_formula_structural             'Hg~2~ As Cl~2~'
_chemical_formula_sum                    'As Cl2 Hg2'
_chemical_name_mineral                   ?
_chemical_compound_source                ?
_chemical_name_structure_type            Hg~2~AsCl~2~,mS40,12
_chemical_formula_weight                 547.0

# Bibliographic data

_publ_section_title
;
Synthesis and Crystal Structure of Mercury Pnictide Halides Hg~2~AsCl~2~ and Hg~19~As~10~Br~18~ Containing Binuclear Anions As~2~^4-^
;
_journal_coden_ASTM                      RJICAQ
_journal_name_full                       'Russ. J. Inorg. Chem.'
_journal_year                            1995
_journal_volume                          40
_journal_page_first                      1442
_journal_page_last                       1447
_journal_language                        English
loop_
 _publ_author_name
 _publ_author_address
'Shevel'kov A.V.'
;
Moscow M.V. Lomonosov State University
Moscow
Russia
;
'Dikarev E.V.'
;
Moscow M.V. Lomonosov State University
Moscow
Russia
;
'Popovkin B.A.'
;
Moscow M.V. Lomonosov State University
Moscow
Russia
;

# Standardized crystallographic data

_cell_length_a                           13.914
_cell_length_b                           8.21
_cell_length_c                           8.896
_cell_angle_alpha                        90
_cell_angle_beta                         97.61
_cell_angle_gamma                        90
_cell_volume                             1007.3
_cell_formula_units_Z                    8
_space_group_IT_number                   12
_space_group_name_H-M_alt                'C 1 2/m 1'
loop_
 _space_group_symop_id
 _space_group_symop_operation_xyz
 1 'x, y, z'
 2 '-x, -y, -z'
 3 '-x, y, -z'
 4 'x, -y, z'
 5 '1/2+x, 1/2+y, z'
 6 '1/2-x, 1/2-y, -z'
 7 '1/2-x, 1/2+y, -z'
 8 '1/2+x, 1/2-y, z'
loop_
 _atom_type_symbol
 Cl
 Hg
 As
loop_
 _atom_site_label
 _atom_site_type_symbol
 _atom_site_symmetry_multiplicity
 _atom_site_Wyckoff_symbol
 _atom_site_fract_x
 _atom_site_fract_y
 _atom_site_fract_z
 _atom_site_occupancy
 Cl3 Cl 8 j 0.2648 0.2785 0.2586 1
 Hg3 Hg 8 j 0.48505 0.2523 0.2451 1
 As1 As 4 i 0.0419 0 0.3906 1
 Cl2 Cl 4 i 0.1104 0 0.0136 1
 Hg1 Hg 4 i 0.21833 0 0.4825 1
 Cl1 Cl 4 i 0.3906 0 0.5131 1
 As2 As 4 i 0.4469 0 0.095 1
 Hg2 Hg 4 i 0.72202 0 0.0341 1


_exptl_crystal_colour                    'brown yellow'
_exptl_crystal_density_meas              ?
_exptl_crystal_density_diffrn            7.21
_cell_measurement_temperature            293
_cell_measurement_radiation              'X-rays, Mo Ka'
_cell_measurement_wavelength             0.71069
_cell_measurement_reflns_used            24
_diffrn_ambient_temperature              293
_diffrn_measurement_device               'automatic diffractometer'
_diffrn_measurement_device_type          'Enraf-Nonius CAD4F'
_diffrn_radiation_type                   'X-rays, Mo Ka'
_diffrn_radiation_wavelength             0.71069
_diffrn_reflns_number                    ?
_exptl_absorpt_coefficient_mu            69.85
_exptl_absorpt_correction_type           ?
_computing_structure_solution            'direct methods, Patterson synthesis'
_refine_ls_number_parameters             55
_refine_ls_number_reflns                 1110
_refine_ls_R_factor_gt                   0.057
_refine_ls_wR_factor_gt                  0.062

# End of data set 304087


