##############################################################################
#                                                                            #
# Hg-La            # Hg2La                                         #  251882 #
#                                                                            #
##############################################################################
#                                                                            #
#                           Pearson's Crystal Data                           #
#      Crystal Structure Database for Inorganic Compounds (on DVD)           #
#                              Release 2017/18                               #
#                  Editors: Pierre Villars and Karin Cenzual                 #
#                                                                            #
#   Copyright (c) ASM International & Material Phases Data System (MPDS),    #
# Switzerland & National Institute for Materials Science (NIMS), Japan, 2017 #
#                   All rights reserved. Version 2017.08                     #
#                                                                            #
#   This copy of Pearson's Crystal Data is licensed to:                      #
#   University of Alberta, Chemistry Department, 1-5 Installations License         #
#                                                                            #
##############################################################################

data_251882
_audit_creation_date                     2017-12-01
_audit_creation_method
;
Pearson's Crystal Data browser
;
#_database_code_PCD                      251882

# Entry summary

_chemical_formula_structural             'Hg~2~ La'
_chemical_formula_sum                    'Hg2 La'
_chemical_name_mineral                   ?
_chemical_compound_source                ?
_chemical_name_structure_type            Hg~2~U,hP3,191
_chemical_formula_weight                 540.1

# Bibliographic data

_publ_section_title                      'Le amalgame del lantanio'
_journal_coden_ASTM                      AANLAW
_journal_name_full
'Atti Accad. Naz. Lincei, Cl. Sci. Fis., Mat. Nat., Rend.'                    
_journal_year                            1951
_journal_volume                          11
_journal_page_first                      85
_journal_page_last                       93
_journal_language                        Italian
loop_
 _publ_author_name
 _publ_author_address
'Iandelli A.'
;
Genova University
Istituto di Chimica
Genova
Italy
;
'Ferro R.'
;
Genova University
Istituto di Chimica
Genova
Italy
;
'Rolla S.L.'
;
Genova University
Istituto di Chimica
Genova
Italy
;

# Standardized crystallographic data

_cell_length_a                           4.948
_cell_length_b                           4.948
_cell_length_c                           3.633
_cell_angle_alpha                        90
_cell_angle_beta                         90
_cell_angle_gamma                        120
_cell_volume                             77.03
_cell_formula_units_Z                    1
_space_group_IT_number                   191
_space_group_name_H-M_alt                'P 6/m m m'
loop_
 _space_group_symop_id
 _space_group_symop_operation_xyz
 1 'x, y, z'
 2 '-x+y, -x, -z'
 3 '-x+y, -x, z'
 4 '-x+y, y, -z'
 5 '-x+y, y, z'
 6 '-x, -x+y, -z'
 7 '-x, -x+y, z'
 8 '-x, -y, -z'
 9 '-x, -y, z'
 10 '-y, -x, -z'
 11 '-y, -x, z'
 12 '-y, x-y, -z'
 13 '-y, x-y, z'
 14 'x, x-y, -z'
 15 'x, x-y, z'
 16 'x, y, -z'
 17 'x-y, -y, -z'
 18 'x-y, -y, z'
 19 'x-y, x, -z'
 20 'x-y, x, z'
 21 'y, -x+y, -z'
 22 'y, -x+y, z'
 23 'y, x, -z'
 24 'y, x, z'
loop_
 _atom_type_symbol
 Hg
 La
loop_
 _atom_site_label
 _atom_site_type_symbol
 _atom_site_symmetry_multiplicity
 _atom_site_Wyckoff_symbol
 _atom_site_fract_x
 _atom_site_fract_y
 _atom_site_fract_z
 _atom_site_occupancy
 Hg Hg 2 d 0.333333 0.666667 0.5 1
 La La 1 a 0 0 0 1


_exptl_crystal_colour                    ?
_exptl_crystal_density_meas              12.45
_exptl_crystal_density_diffrn            11.64
_cell_measurement_temperature            ?
_cell_measurement_radiation              'X-rays, Cu K'
_cell_measurement_reflns_used            ?
_diffrn_ambient_temperature              ?
_diffrn_measurement_device               ?
_diffrn_measurement_device_type          ?
_diffrn_radiation_type                   ?
_diffrn_reflns_number                    ?
_exptl_absorpt_coefficient_mu            ?
_exptl_absorpt_correction_type           ?
_computing_structure_solution            ?
_refine_ls_number_parameters             ?
_refine_ls_number_reflns                 ?
_refine_ls_R_factor_gt                   ?
_refine_ls_wR_factor_gt                  ?

# Published diffraction lines

loop_
 _refln_index_h
 _refln_index_k
 _refln_index_l
 _refln_d_spacing
 _refln_intensity_meas
 1 0 1 0.78 7
 1 1 0 1.01 7
 1 1 1 1.421 4
 2 0 1 1.735 5
 0 0 2 1.798 3
 2 1 1 2.702 7
 1 1 2 2.765 6
 3 0 0 2.903 5
 3 0 1 3.344 3
 2 2 0 3.873 4
 2 2 1 4.328 4
 3 1 1 4.633 6
 3 0 2 4.698 6.5
 1 1 3 4.999 2
 2 0 3 5.345 3
 4 0 1 5.603 3
 2 2 2 5.671 6.5
 2 1 3 6.297 6
 3 2 1 6.567 6.5
 4 1 0 6.767 7
 3 0 3 6.951 3
 4 1 1 7.218 6
 1 1 4 8.153 8
 3 1 3 8.235 7.5
 5 0 1 8.507 6
 4 1 2 8.57 9
 3 3 0 8.714 7
 3 3 1 9.144 7
 4 0 3 9.209 6.5
 4 2 1 9.483 9

# End of data set 251882


