##############################################################################
#                                                                            #
# Hg-P-S           # Hg2P2S7                                       #  540956 #
#                                                                            #
##############################################################################
#                                                                            #
#                           Pearson's Crystal Data                           #
#      Crystal Structure Database for Inorganic Compounds (on DVD)           #
#                              Release 2017/18                               #
#                  Editors: Pierre Villars and Karin Cenzual                 #
#                                                                            #
#   Copyright (c) ASM International & Material Phases Data System (MPDS),    #
# Switzerland & National Institute for Materials Science (NIMS), Japan, 2017 #
#                   All rights reserved. Version 2017.08                     #
#                                                                            #
#   This copy of Pearson's Crystal Data is licensed to:                      #
#   University of Alberta, Chemistry Department, 1-5 Installations License         #
#                                                                            #
##############################################################################

data_540956
_audit_creation_date                     2017-12-04
_audit_creation_method
;
Pearson's Crystal Data browser
;
#_database_code_PCD                      540956

# Entry summary

_chemical_formula_structural             'Hg~2~ P~2~ S~7~'
_chemical_formula_sum                    'Hg2 P2 S7'
_chemical_name_mineral                   ?
_chemical_compound_source                ?
_chemical_name_structure_type            Hg~2~P~2~S~7~,mS22,5
_chemical_formula_weight                 687.5

# Bibliographic data

_publ_section_title
;
Darstellung und Kristallstruktur des Quecksilber(II)-thiodiphosphats Hg~2~P~2~S~7~
;
_journal_coden_ASTM                      ZAACAB
_journal_name_full                       'Z. Anorg. Allg. Chem.'
_journal_year                            1978
_journal_volume                          445
_journal_page_first                      184
_journal_page_last                       192
_journal_language                        German
loop_
 _publ_author_name
 _publ_author_address
'Jandali M.Z.'
;
Stuttgart Hohenheim University
Institut f\"ur Chemie
Stuttgart
Germany
;
'Eulenberger G.R.'
;
Stuttgart Hohenheim University
Institut f\"ur Chemie
Stuttgart
Germany
;
'Hahn H.'
;
Stuttgart Hohenheim University
Institut f\"ur Chemie
Stuttgart
Germany
;

# Standardized crystallographic data

_cell_length_a                           10.887
_cell_length_b                           5.827
_cell_length_c                           8.132
_cell_angle_alpha                        90
_cell_angle_beta                         103.83
_cell_angle_gamma                        90
_cell_volume                             500.9
_cell_formula_units_Z                    2
_space_group_IT_number                   5
_space_group_name_H-M_alt                'C 1 2 1'
loop_
 _space_group_symop_id
 _space_group_symop_operation_xyz
 1 'x, y, z'
 2 '-x, y, -z'
 3 '1/2+x, 1/2+y, z'
 4 '1/2-x, 1/2+y, -z'
loop_
 _atom_type_symbol
 S
 Hg
 P
loop_
 _atom_site_label
 _atom_site_type_symbol
 _atom_site_symmetry_multiplicity
 _atom_site_Wyckoff_symbol
 _atom_site_fract_x
 _atom_site_fract_y
 _atom_site_fract_z
 _atom_site_occupancy
 S(3) S 4 c 0.1267 0.0296 0.3926 1
 S(1) S 4 c 0.2407 0.6472 0.1437 1
 Hg Hg 4 c 0.2908 0.2812 0.3025 1
 S(4) S 4 c 0.4737 0.0435 0.2638 1
 P P 4 c 0.5869 0.2889 0.2056 1
 S(2) S 2 a 0 0.0 0 1


_exptl_crystal_colour                    ?
_exptl_crystal_density_meas              4.40
_exptl_crystal_density_diffrn            4.56
_cell_measurement_temperature            ?
_cell_measurement_radiation              'X-rays, Mo Ka'
_cell_measurement_wavelength             0.71069
_cell_measurement_reflns_used            ?
_diffrn_ambient_temperature              ?
_diffrn_measurement_device               'automatic diffractometer'
_diffrn_measurement_device_type          'Syntex P21'
_diffrn_radiation_type                   'X-rays, Mo Ka'
_diffrn_radiation_wavelength             0.71069
_diffrn_reflns_number                    1215
_diffrn_reflns_theta_min                 1
_diffrn_reflns_theta_max                 35
_exptl_absorpt_coefficient_mu            ?
_exptl_absorpt_correction_type           ?
_computing_structure_solution            'Patterson and Fourier synthesis'
_refine_ls_number_parameters             ?
_refine_ls_number_reflns                 1119
_refine_ls_R_factor_gt                   0.094
_refine_ls_wR_factor_gt                  ?

# End of data set 540956


