##############################################################################
#                                                                            #
# Hg-Th            # Hg2Th                                         #  532669 #
#                                                                            #
##############################################################################
#                                                                            #
#                           Pearson's Crystal Data                           #
#      Crystal Structure Database for Inorganic Compounds (on DVD)           #
#                              Release 2017/18                               #
#                  Editors: Pierre Villars and Karin Cenzual                 #
#                                                                            #
#   Copyright (c) ASM International & Material Phases Data System (MPDS),    #
# Switzerland & National Institute for Materials Science (NIMS), Japan, 2017 #
#                   All rights reserved. Version 2017.08                     #
#                                                                            #
#   This copy of Pearson's Crystal Data is licensed to:                      #
#   University of Alberta, Chemistry Department, 1-5 Installations License         #
#                                                                            #
##############################################################################

data_532669
_audit_creation_date                     2017-12-04
_audit_creation_method
;
Pearson's Crystal Data browser
;
#_database_code_PCD                      532669

# Entry summary

_chemical_formula_structural             'Hg~2~ Th'
_chemical_formula_sum                    'Hg2 Th'
_chemical_name_mineral                   ?
_chemical_compound_source                ?
_chemical_name_structure_type            CaIn~2~,hP6,194
_chemical_formula_weight                 633.2

# Bibliographic data

_publ_section_title
'Beitrag zum System Quecksilber-Thorium'                                      
_journal_coden_ASTM                      MOCMB7
_journal_name_full                       'Monatsh. Chem.'
_journal_year                            1965
_journal_volume                          96
_journal_page_first                      443
_journal_page_last                       449
_journal_language                        German
loop_
 _publ_author_name
 _publ_author_address
'Ettmayer P.'
;
Vienna Technical University
Institut f\"ur Chemische Technologie
Vienna
Austria
;

# Standardized crystallographic data

_cell_length_a                           4.82
_cell_length_b                           4.82
_cell_length_c                           7.49
_cell_angle_alpha                        90
_cell_angle_beta                         90
_cell_angle_gamma                        120
_cell_volume                             150.7
_cell_formula_units_Z                    2
_space_group_IT_number                   194
_space_group_name_H-M_alt                'P 63/m m c'
loop_
 _space_group_symop_id
 _space_group_symop_operation_xyz
 1 'x, y, z'
 2 '-x+y, -x, 1/2-z'
 3 '-x+y, -x, z'
 4 '-x+y, y, 1/2-z'
 5 '-x+y, y, z'
 6 '-x, -x+y, -z'
 7 '-x, -x+y, 1/2+z'
 8 '-x, -y, -z'
 9 '-x, -y, 1/2+z'
 10 '-y, -x, 1/2-z'
 11 '-y, -x, z'
 12 '-y, x-y, 1/2-z'
 13 '-y, x-y, z'
 14 'x, x-y, 1/2-z'
 15 'x, x-y, z'
 16 'x, y, 1/2-z'
 17 'x-y, -y, -z'
 18 'x-y, -y, 1/2+z'
 19 'x-y, x, -z'
 20 'x-y, x, 1/2+z'
 21 'y, -x+y, -z'
 22 'y, -x+y, 1/2+z'
 23 'y, x, -z'
 24 'y, x, 1/2+z'
loop_
 _atom_type_symbol
 Hg
 Th
loop_
 _atom_site_label
 _atom_site_type_symbol
 _atom_site_symmetry_multiplicity
 _atom_site_Wyckoff_symbol
 _atom_site_fract_x
 _atom_site_fract_y
 _atom_site_fract_z
 _atom_site_occupancy
 Hg Hg 4 f 0.333333 0.666667 0.04 1
 Th Th 2 b 0 0 0.25 1


_exptl_crystal_colour                    ?
_exptl_crystal_density_meas              ?
_exptl_crystal_density_diffrn            13.96
_cell_measurement_temperature            ?
_cell_measurement_radiation              'X-rays, Cu Ka'
_cell_measurement_reflns_used            ?
_diffrn_ambient_temperature              ?
_diffrn_measurement_device               'Debye-Scherrer film'
_diffrn_measurement_device_type          ?
_diffrn_radiation_type                   'X-rays, Cu Ka'
_diffrn_reflns_number                    ?
_exptl_absorpt_coefficient_mu            ?
_exptl_absorpt_correction_type           ?
_computing_structure_solution            'starting values from the literature'
_refine_ls_number_parameters             ?
_refine_ls_number_reflns                 ?
_refine_ls_R_factor_gt                   ?
_refine_ls_wR_factor_gt                  ?
_pd_proc_ls_proof_R_factor               ?
_pd_proc_ls_proof_wR_factor              ?
_refine_ls_R_I_factor                    ?

# Published diffraction lines

loop_
 _refln_index_h
 _refln_index_k
 _refln_index_l
 _refln_d_spacing
 _refln_intensity_meas
 0 1 1 36.8 2
 0 1 2 27.9 7
 1 1 0 23.9 7
 0 1 3 21.3 5
 1 1 2 20.1 2
 0 0 4 18.7 3
 0 2 2 18.1 6
 0 2 3 16 3
 1 1 4 14.7 6
 1 2 2 14.5 7
 0 2 4 13.8 6
 1 2 3 13.3 5
 0 2 5 12.1 5
 1 2 4 12 6
 0 1 6 11.9 3
 0 3 4 11.1 6
 1 3 2 11 7
 1 2 5 10.8 6
 0 2 6 10.7 3
 1 3 3 10.5 5
 0 1 7 10.3 5
 2 2 4 10.1 6
 4 0 2 10 5
 1 2 6 9.78 5
 0 4 3 9.6 3
 2 3 1 9.5 5
 2 3 2 9.25 7
 1 3 5 9.13 7
 0 4 4 9.08 7
 2 3 3 8.94 5
 1 2 7 8.84 6
 2 2 6 8.65 3
 0 4 5 8.54 6
 1 3 6 8.47 5

# End of data set 532669


