##############################################################################
#                                                                            #
# As-Hg-O          # Hg3[AsO4] mon1                                # 1100227 #
#                                                                            #
##############################################################################
#                                                                            #
#                           Pearson's Crystal Data                           #
#      Crystal Structure Database for Inorganic Compounds (on DVD)           #
#                              Release 2017/18                               #
#                  Editors: Pierre Villars and Karin Cenzual                 #
#                                                                            #
#   Copyright (c) ASM International & Material Phases Data System (MPDS),    #
# Switzerland & National Institute for Materials Science (NIMS), Japan, 2017 #
#                   All rights reserved. Version 2017.08                     #
#                                                                            #
#   This copy of Pearson's Crystal Data is licensed to:                      #
#   University of Alberta, Chemistry Department, 1-5 Installations License         #
#                                                                            #
##############################################################################

data_1100227
_audit_creation_date                     2017-12-04
_audit_creation_method
;
Pearson's Crystal Data browser
;
#_database_code_PCD                      1100227

# Entry summary

_chemical_formula_structural             'Hg~3~ [As O~4~]'
_chemical_formula_sum                    'As Hg3 O4'
_chemical_name_mineral                   ?
_chemical_compound_source                ?
_chemical_name_structure_type            Hg~3~[AsO~4~],mP32,14
_chemical_formula_weight                 740.7

# Bibliographic data

_publ_section_title
'The Crystal Structure of Mercury(I) Orthoarsenate'                           
_journal_coden_ASTM                      ACBCAR
_journal_name_full                       'Acta Crystallogr. B'
_journal_year                            1973
_journal_volume                          29
_journal_page_first                      1666
_journal_page_last                       1669
_journal_language                        English
loop_
 _publ_author_name
 _publ_author_address
'Kamenar B.'
;
Zagreb University
Laboratory of General and Inorganic Chemistry
Zagreb
Croatia
;
'Kaitner B.'
;
Zagreb University
Laboratory of General and Inorganic Chemistry
Zagreb
Croatia
;

# Standardized crystallographic data

_cell_length_a                           8.73
_cell_length_b                           5.08
_cell_length_c                           14.499
_cell_angle_alpha                        90
_cell_angle_beta                         122.289
_cell_angle_gamma                        90
_cell_volume                             543.6
_cell_formula_units_Z                    4
_space_group_IT_number                   14
_space_group_name_H-M_alt                'P 1 21/c 1'
loop_
 _space_group_symop_id
 _space_group_symop_operation_xyz
 1 'x, y, z'
 2 '-x, -y, -z'
 3 '-x, 1/2+y, 1/2-z'
 4 'x, 1/2-y, 1/2+z'
loop_
 _atom_type_symbol
 Hg
 O
 As
loop_
 _atom_site_label
 _atom_site_type_symbol
 _atom_site_symmetry_multiplicity
 _atom_site_Wyckoff_symbol
 _atom_site_fract_x
 _atom_site_fract_y
 _atom_site_fract_z
 _atom_site_occupancy
 Hg2 Hg 4 e 0.0573 0.15 0.3745 1
 O1 O 4 e 0.08 0.012 0.219 1
 Hg3 Hg 4 e 0.228 0.641 0.0416 1
 O4 O 4 e 0.254 0.471 0.227 1
 As As 4 e 0.266 0.1219 0.2256 1
 O3 O 4 e 0.286 0.013 0.126 1
 O2 O 4 e 0.454 0.027 0.347 1
 Hg1 Hg 4 e 0.542 0.1312 0.0847 1


_exptl_crystal_colour                    'brown red'
_exptl_crystal_density_meas              9.05
_exptl_crystal_density_diffrn            9.05
_cell_measurement_temperature            ?
_cell_measurement_radiation              ?
_cell_measurement_reflns_used            ?
_diffrn_ambient_temperature              ?
_diffrn_measurement_device
'oscillation and Weissenberg photographs'                                     
_diffrn_measurement_device_type          ?
_diffrn_radiation_type                   'X-rays, Cu Ka'
_diffrn_reflns_number                    ?
_exptl_absorpt_coefficient_mu            ?
_exptl_absorpt_correction_type           yes
_computing_structure_solution            'Patterson and Fourier synthesis'
_refine_ls_number_parameters             ?
_refine_ls_number_reflns                 1137
_refine_ls_R_factor_gt                   0.085
_refine_ls_wR_factor_gt                  ?

# End of data set 1100227


