##############################################################################
#                                                                            #
# Dy-Hg            # Hg3Dy                                         #  532699 #
#                                                                            #
##############################################################################
#                                                                            #
#                           Pearson's Crystal Data                           #
#      Crystal Structure Database for Inorganic Compounds (on DVD)           #
#                              Release 2017/18                               #
#                  Editors: Pierre Villars and Karin Cenzual                 #
#                                                                            #
#   Copyright (c) ASM International & Material Phases Data System (MPDS),    #
# Switzerland & National Institute for Materials Science (NIMS), Japan, 2017 #
#                   All rights reserved. Version 2017.08                     #
#                                                                            #
#   This copy of Pearson's Crystal Data is licensed to:                      #
#   University of Alberta, Chemistry Department, 1-5 Installations License         #
#                                                                            #
##############################################################################

data_532699
_audit_creation_date                     2017-12-04
_audit_creation_method
;
Pearson's Crystal Data browser
;
#_database_code_PCD                      532699

# Entry summary

_chemical_formula_structural             'Hg~3~ Dy'
_chemical_formula_sum                    'Dy Hg3'
_chemical_name_mineral                   ?
_chemical_compound_source                ?
_chemical_name_structure_type            Mg~3~Cd,hP8,194
_chemical_formula_weight                 764.3

# Bibliographic data

_publ_section_title
'\"Uber einige Y- und Dy-haltige Legierungsphasen'                            
_journal_coden_ASTM                      MOCMB7
_journal_name_full                       'Monatsh. Chem.'
_journal_year                            1964
_journal_volume                          95
_journal_page_first                      1504
_journal_page_last                       1513
_journal_language                        German
loop_
 _publ_author_name
 _publ_author_address
'Laube E.'
;
Vienna University
Institut f\"ur Physikalische Chemie
Vienna
Austria
;
'Kusma J.B.'
;
Vienna University
Institut f\"ur Physikalische Chemie
Vienna
Austria
;

# Standardized crystallographic data

_cell_length_a                           6.544
_cell_length_b                           6.544
_cell_length_c                           4.883
_cell_angle_alpha                        90
_cell_angle_beta                         90
_cell_angle_gamma                        120
_cell_volume                             181.09
_cell_formula_units_Z                    2
_space_group_IT_number                   194
_space_group_name_H-M_alt                'P 63/m m c'
loop_
 _space_group_symop_id
 _space_group_symop_operation_xyz
 1 'x, y, z'
 2 '-x+y, -x, 1/2-z'
 3 '-x+y, -x, z'
 4 '-x+y, y, 1/2-z'
 5 '-x+y, y, z'
 6 '-x, -x+y, -z'
 7 '-x, -x+y, 1/2+z'
 8 '-x, -y, -z'
 9 '-x, -y, 1/2+z'
 10 '-y, -x, 1/2-z'
 11 '-y, -x, z'
 12 '-y, x-y, 1/2-z'
 13 '-y, x-y, z'
 14 'x, x-y, 1/2-z'
 15 'x, x-y, z'
 16 'x, y, 1/2-z'
 17 'x-y, -y, -z'
 18 'x-y, -y, 1/2+z'
 19 'x-y, x, -z'
 20 'x-y, x, 1/2+z'
 21 'y, -x+y, -z'
 22 'y, -x+y, 1/2+z'
 23 'y, x, -z'
 24 'y, x, 1/2+z'

# Atomic positions taken from type-defining entry

loop_
 _atom_type_symbol
 Hg
 Dy
loop_
 _atom_site_label
 _atom_site_type_symbol
 _atom_site_symmetry_multiplicity
 _atom_site_Wyckoff_symbol
 _atom_site_fract_x
 _atom_site_fract_y
 _atom_site_fract_z
 _atom_site_occupancy
 Hg1 Hg 6 h 0.16667 0.33333 0.25 1
 Dy1 Dy 2 d 0.333333 0.666667 0.75 1


_exptl_crystal_colour                    ?
_exptl_crystal_density_meas              ?
_exptl_crystal_density_diffrn            14.02
_cell_measurement_temperature            ?
_cell_measurement_radiation              'X-rays, Cu Ka'
_cell_measurement_reflns_used            ?
_diffrn_ambient_temperature              ?
_diffrn_measurement_device               'Debye-Scherrer film'
_diffrn_measurement_device_type          ?
_diffrn_radiation_type                   ?
_diffrn_reflns_number                    ?
_exptl_absorpt_coefficient_mu            ?
_exptl_absorpt_correction_type           ?
_computing_structure_solution            ?
_refine_ls_number_parameters             ?
_refine_ls_number_reflns                 ?
_refine_ls_R_factor_gt                   ?
_refine_ls_wR_factor_gt                  ?

# Published diffraction lines

loop_
 _refln_index_h
 _refln_index_k
 _refln_index_l
 _refln_d_spacing
 _refln_intensity_meas
 2 0 0 737 3
 2 0 1 986 8
 2 1 1 1545 1
 2 0 2 1733 2.5
 2 2 0 2212 3
 4 0 0 2974 3.5
 4 0 1 3208 5.5
 4 0 2 3960 2
 2 0 4 4721 1
 4 2 0 5183 2.5
 4 2 1 5418 3.5
 4 2 2 6184 3
 6 0 0 6644 2
 4 0 4 6954 2.5
 4 2 3 7409 4.5
 6 0 2 7642 3.5
 4 4 0 8864 2.5
 0 0 6 8951 1
 4 2 4 9168 7
 6 2 0 9599 2
 2 0 6 9692 2.5

# End of data set 532699


