##############################################################################
#                                                                            #
# Hg-Sc            # Hg3Sc                                         #  532732 #
#                                                                            #
##############################################################################
#                                                                            #
#                           Pearson's Crystal Data                           #
#      Crystal Structure Database for Inorganic Compounds (on DVD)           #
#                              Release 2017/18                               #
#                  Editors: Pierre Villars and Karin Cenzual                 #
#                                                                            #
#   Copyright (c) ASM International & Material Phases Data System (MPDS),    #
# Switzerland & National Institute for Materials Science (NIMS), Japan, 2017 #
#                   All rights reserved. Version 2017.08                     #
#                                                                            #
#   This copy of Pearson's Crystal Data is licensed to:                      #
#   University of Alberta, Chemistry Department, 1-5 Installations License         #
#                                                                            #
##############################################################################

data_532732
_audit_creation_date                     2017-12-04
_audit_creation_method
;
Pearson's Crystal Data browser
;
#_database_code_PCD                      532732

# Entry summary

_chemical_formula_structural             'Hg~3~ Sc'
_chemical_formula_sum                    'Hg3 Sc'
_chemical_name_mineral                   ?
_chemical_compound_source                ?
_chemical_name_structure_type            Mg~3~Cd,hP8,194
_chemical_formula_weight                 646.7

# Bibliographic data

_publ_section_title
'Die Kristallstrukturen von ScHg, ScHg~3~, YCd, YHg und YHg~3~'               
_journal_coden_ASTM                      MOCMB7
_journal_name_full                       'Monatsh. Chem.'
_journal_year                            1963
_journal_volume                          94
_journal_page_first                      851
_journal_page_last                       858
_journal_language                        German
loop_
 _publ_author_name
 _publ_author_address
'Laube E.'
;
Vienna University
Institut f\"ur Physikalische Chemie
Vienna
Austria
;
'Nowotny H.'
;
Vienna University
Institut f\"ur Physikalische Chemie
Vienna
Austria
;

# Standardized crystallographic data

_cell_length_a                           6.369
_cell_length_b                           6.369
_cell_length_c                           4.762
_cell_angle_alpha                        90
_cell_angle_beta                         90
_cell_angle_gamma                        120
_cell_volume                             167.29
_cell_formula_units_Z                    2
_space_group_IT_number                   194
_space_group_name_H-M_alt                'P 63/m m c'
loop_
 _space_group_symop_id
 _space_group_symop_operation_xyz
 1 'x, y, z'
 2 '-x+y, -x, 1/2-z'
 3 '-x+y, -x, z'
 4 '-x+y, y, 1/2-z'
 5 '-x+y, y, z'
 6 '-x, -x+y, -z'
 7 '-x, -x+y, 1/2+z'
 8 '-x, -y, -z'
 9 '-x, -y, 1/2+z'
 10 '-y, -x, 1/2-z'
 11 '-y, -x, z'
 12 '-y, x-y, 1/2-z'
 13 '-y, x-y, z'
 14 'x, x-y, 1/2-z'
 15 'x, x-y, z'
 16 'x, y, 1/2-z'
 17 'x-y, -y, -z'
 18 'x-y, -y, 1/2+z'
 19 'x-y, x, -z'
 20 'x-y, x, 1/2+z'
 21 'y, -x+y, -z'
 22 'y, -x+y, 1/2+z'
 23 'y, x, -z'
 24 'y, x, 1/2+z'
loop_
 _atom_type_symbol
 Hg
 Sc
loop_
 _atom_site_label
 _atom_site_type_symbol
 _atom_site_symmetry_multiplicity
 _atom_site_Wyckoff_symbol
 _atom_site_fract_x
 _atom_site_fract_y
 _atom_site_fract_z
 _atom_site_occupancy
 Hg Hg 6 h 0.167 0.334 0.25 1
 Sc Sc 2 d 0.333333 0.666667 0.75 1


_exptl_crystal_colour                    ?
_exptl_crystal_density_meas              ?
_exptl_crystal_density_diffrn            12.84
_cell_measurement_temperature            ?
_cell_measurement_radiation              'X-rays, Cu Ka'
_cell_measurement_reflns_used            ?
_diffrn_ambient_temperature              ?
_diffrn_measurement_device               'Debye-Scherrer film'
_diffrn_measurement_device_type          ?
_diffrn_radiation_type                   'X-rays, Cu Ka'
_diffrn_reflns_number                    ?
_exptl_absorpt_coefficient_mu            ?
_exptl_absorpt_correction_type           ?
_computing_structure_solution            'starting values from the literature'
_refine_ls_number_parameters             ?
_refine_ls_number_reflns                 ?
_refine_ls_R_factor_gt                   ?
_refine_ls_wR_factor_gt                  ?
_pd_proc_ls_proof_R_factor               ?
_pd_proc_ls_proof_wR_factor              ?
_refine_ls_R_I_factor                    ?

# Published diffraction lines

loop_
 _refln_index_h
 _refln_index_k
 _refln_index_l
 _refln_d_spacing
 _refln_intensity_meas
 1 0 1 457 2
 1 1 0 585 1
 2 0 0 778 2.5
 2 0 1 1044 7
 2 1 1 1628 2
 2 0 2 1826 2.5
 2 2 0 2336 3
 2 1 2 2410 1
 1 0 3 2553 1
 3 1 1 2800 2
 4 0 0 3127 4
 4 0 1 3383 6
 2 1 3 3723 1
 3 2 1 3969 1
 4 0 2 4174 3
 3 2 2 4764 1
 3 1 3 4887 1
 2 0 4 4965 3
 4 1 2 5140 1
 4 2 0 5462 3.5
 4 2 1 5722 5
 3 2 3 6058 1
 5 1 1 6303 1
 4 2 2 6520 6
 6 0 0 7018 3
 4 0 4 7316 5
 4 2 3 7810 7
 6 0 2 8065 5
 4 1 4 8280 1
 5 1 3 8397 1
 6 1 1 8645 3
 3 1 5 9077 1
 4 4 0 9356 3
 0 0 6 9423 2.5
 3 3 4 9447 1
 5 3 0 9550 1
 4 3 3 9568 1
 4 2 4 9642 8
 4 0 5 9662 8
 7 0 1 9811 1

# End of data set 532732


