##############################################################################
#                                                                            #
# Ge-Hg-S          # Hg4GeS6 rt                                    #  313329 #
#                                                                            #
##############################################################################
#                                                                            #
#                           Pearson's Crystal Data                           #
#      Crystal Structure Database for Inorganic Compounds (on DVD)           #
#                              Release 2017/18                               #
#                  Editors: Pierre Villars and Karin Cenzual                 #
#                                                                            #
#   Copyright (c) ASM International & Material Phases Data System (MPDS),    #
# Switzerland & National Institute for Materials Science (NIMS), Japan, 2017 #
#                   All rights reserved. Version 2017.08                     #
#                                                                            #
#   This copy of Pearson's Crystal Data is licensed to:                      #
#   University of Alberta, Chemistry Department, 1-5 Installations License         #
#                                                                            #
##############################################################################

data_313329
_audit_creation_date                     2017-12-01
_audit_creation_method
;
Pearson's Crystal Data browser
;
#_database_code_PCD                      313329

# Entry summary

_chemical_formula_structural             'Hg~4~ Ge S~6~'
_chemical_formula_sum                    'Ge Hg4 S6'
_chemical_name_mineral                   ?
_chemical_compound_source                ?
_chemical_name_structure_type            Cd~4~GeS~6~,mS44,9
_chemical_formula_weight                 1067.3

# Bibliographic data

_publ_section_title
'Les syst\`emes SiS~2~-MS et GeS~2~-MS (M= Cd, Hg) entre 800 et 1000 \%C'     
_journal_coden_ASTM                      BSCFAS
_journal_name_full                       'Bull. Soc. Chim. Fr.'
_journal_year                            1968
_journal_volume                          ?
_journal_page_first                      561
_journal_page_last                       566
_journal_language                        French
loop_
 _publ_author_name
 _publ_author_address
'Serment J.'
;
Talence Bordeaux I University
Laboratoire de Chimie Min\'erale Structurale
Talence
France
;
'Perez G.'
;
Talence Bordeaux I University
Laboratoire de Chimie Min\'erale Structurale
Talence
France
;
'Hagenmuller P.'
;
Talence Bordeaux I University
Laboratoire de Chimie Min\'erale Structurale
Talence
France
;

# Standardized crystallographic data

_cell_length_a                           12.34
_cell_length_b                           7.127
_cell_length_c                           12.36
_cell_angle_alpha                        90
_cell_angle_beta                         109.45
_cell_angle_gamma                        90
_cell_volume                             1025
_cell_formula_units_Z                    4
_space_group_IT_number                   9
_space_group_name_H-M_alt                'C 1 c 1'
loop_
 _space_group_symop_id
 _space_group_symop_operation_xyz
 1 'x, y, z'
 2 'x, -y, 1/2+z'
 3 '1/2+x, 1/2+y, z'
 4 '1/2+x, 1/2-y, 1/2+z'

# Atomic positions taken from type-defining entry

loop_
 _atom_type_symbol
 S
 Ge
 Hg
loop_
 _atom_site_label
 _atom_site_type_symbol
 _atom_site_symmetry_multiplicity
 _atom_site_Wyckoff_symbol
 _atom_site_fract_x
 _atom_site_fract_y
 _atom_site_fract_z
 _atom_site_occupancy
 S1 S 4 a 0.0 0.0177 0.0 1
 S2 S 4 a 0.0 0.2782 0.264 1
 S3 S 4 a 0.032 0.518 0.0318 1
 Ge1 Ge 4 a 0.076 0.2302 0.4511 1
 Hg1 Hg 4 a 0.1421 0.0814 0.2037 1
 S4 S 4 a 0.2641 0.2366 0.5037 1
 Hg2 Hg 4 a 0.298 0.6065 0.2006 1
 S5 S 4 a 0.3202 0.2551 0.198 1
 Hg3 Hg 4 a 0.3271 0.1156 0.0129 1
 Hg4 Hg 4 a 0.5092 0.1969 0.3591 1
 S6 S 4 a 0.6936 0.2761 0.3182 1


_exptl_crystal_colour                    ?
_exptl_crystal_density_meas              6.88(1)
_exptl_crystal_density_diffrn            6.92
_cell_measurement_temperature            ?
_cell_measurement_radiation              'X-rays, Cu Ka'
_cell_measurement_reflns_used            ?
_diffrn_ambient_temperature              ?
_diffrn_measurement_device               'Debye-Scherrer film'
_diffrn_measurement_device_type          ?
_diffrn_radiation_type                   ?
_diffrn_reflns_number                    ?
_exptl_absorpt_coefficient_mu            ?
_exptl_absorpt_correction_type           ?
_computing_structure_solution            ?
_refine_ls_number_parameters             ?
_refine_ls_number_reflns                 ?
_refine_ls_R_factor_gt                   ?
_refine_ls_wR_factor_gt                  ?

# Published diffraction lines

loop_
 _refln_index_h
 _refln_index_k
 _refln_index_l
 _refln_d_spacing
 _refln_intensity_meas
 1 1 0 61 2
 0 0 2 58.2 2
 2 0 -2 50.4 1
 1 1 -2 46.4 3
 1 1 2 38.9 5
 1 1 -3 35.7 7
 3 1 -2 34.1 8
 2 2 -1 30.8 1
 0 2 2 30.4 7
 0 0 4 29.1 5
 1 1 -4 28.25 5
 3 1 -4 26.25 5
 4 0 -4 25.2 1
 1 3 0 23.3 2
 1 1 -5 23.14 2
 3 1 -5 22.57 2
 2 2 3 22.14 1
 1 3 2 21.15 1
 1 3 -3 20.57 7
 2 2 -5 20.27 1
 4 0 -6 19.41 5
 1 3 -4 18.83 1
 3 3 -4 18.2 1
 0 4 0 17.81 1
 1 3 4 17.61 2
 1 3 -5 17.04 3
 3 3 -5 16.8 2

# End of data set 313329


