##############################################################################
#                                                                            #
# Bi-Hg-S          # HgBi2S4                                       #  302946 #
#                                                                            #
##############################################################################
#                                                                            #
#                           Pearson's Crystal Data                           #
#      Crystal Structure Database for Inorganic Compounds (on DVD)           #
#                              Release 2017/18                               #
#                  Editors: Pierre Villars and Karin Cenzual                 #
#                                                                            #
#   Copyright (c) ASM International & Material Phases Data System (MPDS),    #
# Switzerland & National Institute for Materials Science (NIMS), Japan, 2017 #
#                   All rights reserved. Version 2017.08                     #
#                                                                            #
#   This copy of Pearson's Crystal Data is licensed to:                      #
#   University of Alberta, Chemistry Department, 1-5 Installations License         #
#                                                                            #
##############################################################################

data_302946
_audit_creation_date                     2017-12-01
_audit_creation_method
;
Pearson's Crystal Data browser
;
#_database_code_PCD                      302946

# Entry summary

_chemical_formula_structural             'Hg Bi~2~ S~4~'
_chemical_formula_sum                    'Bi2 Hg S4'
_chemical_name_mineral                   grumiplucite
_chemical_compound_source                ?
_chemical_name_structure_type            HgBi~2~S~4~,mS28,12
_chemical_formula_weight                 746.8

# Bibliographic data

_publ_section_title
'Synthesis of mercury bismuth sulfide HgBi~2~S~4~'                            
_journal_coden_ASTM                      MRBUAC
_journal_name_full                       'Mater. Res. Bull.'
_journal_year                            1973
_journal_volume                          8
_journal_page_first                      859
_journal_page_last                       862
_journal_language                        English
loop_
 _publ_author_name
 _publ_author_address
'Brower W.S. Jr.'
;
National Bureau of Standards (NBS)
Washington
U.S.A. Washington D.C.
;
'Parker H.S.'
;
National Bureau of Standards (NBS)
Washington
U.S.A. Washington D.C.
;
'Roth R.S.'
;
National Bureau of Standards (NBS)
Washington
U.S.A. Washington D.C.
;

# Standardized crystallographic data

_cell_length_a                           14.179
_cell_length_b                           4.0555
_cell_length_c                           13.986
_cell_angle_alpha                        90
_cell_angle_beta                         118.23
_cell_angle_gamma                        90
_cell_volume                             708.6
_cell_formula_units_Z                    4
_space_group_IT_number                   12
_space_group_name_H-M_alt                'C 1 2/m 1'
loop_
 _space_group_symop_id
 _space_group_symop_operation_xyz
 1 'x, y, z'
 2 '-x, -y, -z'
 3 '-x, y, -z'
 4 'x, -y, z'
 5 '1/2+x, 1/2+y, z'
 6 '1/2-x, 1/2-y, -z'
 7 '1/2-x, 1/2+y, -z'
 8 '1/2+x, 1/2-y, z'

# Atomic positions taken from type-defining entry

loop_
 _atom_type_symbol
 S
 Bi
 Hg
loop_
 _atom_site_label
 _atom_site_type_symbol
 _atom_site_symmetry_multiplicity
 _atom_site_Wyckoff_symbol
 _atom_site_fract_x
 _atom_site_fract_y
 _atom_site_fract_z
 _atom_site_occupancy
 S1 S 4 i 0.0009 0 0.3299 1
 S2 S 4 i 0.1568 0 0.1757 1
 S3 S 4 i 0.3141 0 0.4352 1
 Bi1 Bi 4 i 0.3499 0 0.6379 1
 S4 S 4 i 0.3756 0 0.072 1
 Bi2 Bi 4 i 0.774 0 0.1321 1
 Hg1 Hg 2 c 0 0 0.5 1
 Hg2 Hg 2 a 0 0 0 1


_exptl_crystal_colour                    gray
_exptl_crystal_density_meas              ?
_exptl_crystal_density_diffrn            7.00
_cell_measurement_temperature            ?
_cell_measurement_radiation              'X-rays, Cu Ka'
_cell_measurement_wavelength             1.54056
_pd_proc_wavelength                      1.54056
_cell_measurement_reflns_used            ?
_diffrn_ambient_temperature              ?
_diffrn_measurement_device               'automatic diffractometer'
_diffrn_measurement_device_type          ?
_diffrn_radiation_type                   ?
_diffrn_reflns_number                    ?
_exptl_absorpt_coefficient_mu            ?
_exptl_absorpt_correction_type           ?
_computing_structure_solution            ?
_refine_ls_number_parameters             ?
_refine_ls_number_reflns                 ?
_refine_ls_R_factor_gt                   ?
_refine_ls_wR_factor_gt                  ?

# Published diffraction lines

loop_
 _refln_index_h
 _refln_index_k
 _refln_index_l
 _refln_d_spacing
 _refln_intensity_meas
 0 0 2 61.7 75
 2 0 1 47.44 20
 2 0 -3 45.65 15
 1 1 0 38.57 18
 2 0 2 36.13 95
 4 0 -2 35.39 74
 2 0 -4 34.94 100
 0 0 4 30.8 81
 3 1 -2 30.43 83
 3 1 0 29.052 26
 2 0 3 28.608 38
 2 0 -5 27.861 11
 4 0 1 27.347 6
 3 1 1 26.391 23
 1 1 -4 25.983 16
 2 0 4 23.564 49
 5 1 -2 23.201 9
 2 0 -6 23.002 44
 5 1 -1 22.527 31
 1 1 -5 22.308 35
 6 0 -5 21.772 10
 5 1 0 21.267 13
 3 1 3 20.719 15
 0 0 6 20.536 69
 0 2 0 20.278 35
 6 0 -6 20.14 8
 2 0 5 19.926 15
 4 0 -7 19.882 16
 1 1 5 19.513 48
 1 1 -6 19.333 23
 5 1 -6 19.114 23
 4 0 4 18.074 13
 5 1 2 17.998 28
 3 1 -7 17.902 23
 2 2 2 17.689 13
 8 0 -3 17.625 15
 2 2 -4 17.54 20
 8 0 -5 17.434 14
 1 1 6 17.125 9
 1 1 -7 16.976 25
 0 2 4 16.938 21
 8 0 -1 16.494 5
 3 1 -8 15.964 10
 6 0 3 15.804 6
 8 0 0 15.614 5
 0 0 8 15.401 40
 2 2 -6 15.211 10
 2 0 7 15.177 10
 6 2 -1 15.015 6
 6 2 -5 14.837 6
 8 0 1 14.648 15
 4 2 3 14.451 8
 0 2 6 14.425 9
 4 0 6 14.326 10
 4 0 -10 13.934 10
 1 1 -9 13.538 15

# End of data set 302946


