##############################################################################
#                                                                            #
# Hg-P-Se          # HgPSe3                                        #  301328 #
#                                                                            #
##############################################################################
#                                                                            #
#                           Pearson's Crystal Data                           #
#      Crystal Structure Database for Inorganic Compounds (on DVD)           #
#                              Release 2017/18                               #
#                  Editors: Pierre Villars and Karin Cenzual                 #
#                                                                            #
#   Copyright (c) ASM International & Material Phases Data System (MPDS),    #
# Switzerland & National Institute for Materials Science (NIMS), Japan, 2017 #
#                   All rights reserved. Version 2017.08                     #
#                                                                            #
#   This copy of Pearson's Crystal Data is licensed to:                      #
#   University of Alberta, Chemistry Department, 1-5 Installations License         #
#                                                                            #
##############################################################################

data_301328
_audit_creation_date                     2017-12-01
_audit_creation_method
;
Pearson's Crystal Data browser
;
#_database_code_PCD                      301328

# Entry summary

_chemical_formula_structural             'Hg P Se~3~'
_chemical_formula_sum                    'Hg P Se3'
_chemical_name_mineral                   ?
_chemical_compound_source                ?
_chemical_name_structure_type            HgPSe~3~,mS40,15
_chemical_formula_weight                 468.4

# Bibliographic data

_publ_section_title
;
\"Uber die Darstellung und Eigenschaften von Hexathio- und Hexaselenohypodiphosphaten
;
_journal_coden_ASTM                      ZAACAB
_journal_name_full                       'Z. Anorg. Allg. Chem.'
_journal_year                            1973
_journal_volume                          396
_journal_page_first                      271
_journal_page_last                       278
_journal_language                        German
loop_
 _publ_author_name
 _publ_author_address
'Klingen W.'
;
Stuttgart Hohenheim University
Institut f\"ur Anorganische und Physikalische Chemie
Stuttgart
Germany
;
'Ott R.T.'
;
Stuttgart Hohenheim University
Institut f\"ur Anorganische und Physikalische Chemie
Stuttgart
Germany
;
'Hahn H.'
;
Stuttgart Hohenheim University
Institut f\"ur Anorganische und Physikalische Chemie
Stuttgart
Germany
;

# Standardized crystallographic data

_cell_length_a                           6.52
_cell_length_b                           11.52
_cell_length_c                           13.64
_cell_angle_alpha                        90
_cell_angle_beta                         99.1
_cell_angle_gamma                        90
_cell_volume                             1011.6
_cell_formula_units_Z                    8
_space_group_IT_number                   15
_space_group_name_H-M_alt                'C 1 2/c 1'
loop_
 _space_group_symop_id
 _space_group_symop_operation_xyz
 1 'x, y, z'
 2 '-x, -y, -z'
 3 '-x, y, 1/2-z'
 4 'x, -y, 1/2+z'
 5 '1/2+x, 1/2+y, z'
 6 '1/2-x, 1/2-y, -z'
 7 '1/2-x, 1/2+y, 1/2-z'
 8 '1/2+x, 1/2-y, 1/2+z'

# Atomic positions taken from type-defining entry

loop_
 _atom_type_symbol
 Se
 Hg
 P
loop_
 _atom_site_label
 _atom_site_type_symbol
 _atom_site_symmetry_multiplicity
 _atom_site_Wyckoff_symbol
 _atom_site_fract_x
 _atom_site_fract_y
 _atom_site_fract_z
 _atom_site_occupancy
 Se1 Se 8 f 0.1159 0.081 0.1218 1
 Hg1 Hg 8 f 0.1769 0.4063 0.4299 1
 Se2 Se 8 f 0.2161 0.3923 0.1564 1
 P1 P 8 f 0.2924 0.2331 0.0872 1
 Se3 Se 8 f 0.3714 0.1966 0.3883 1


_exptl_crystal_colour                    red
_exptl_crystal_density_meas              6.05
_exptl_crystal_density_diffrn            6.15
_cell_measurement_temperature            ?
_cell_measurement_radiation              X-rays
_cell_measurement_reflns_used            ?
_diffrn_ambient_temperature              ?
_diffrn_measurement_device
'precession and Weissenberg photographs'                                      
_diffrn_measurement_device_type          ?
_diffrn_radiation_type                   ?
_diffrn_reflns_number                    ?
_exptl_absorpt_coefficient_mu            ?
_exptl_absorpt_correction_type           ?
_computing_structure_solution            ?
_refine_ls_number_parameters             ?
_refine_ls_number_reflns                 ?
_refine_ls_R_factor_gt                   ?
_refine_ls_wR_factor_gt                  ?

# End of data set 301328


