##############################################################################
#                                                                            #
# Hg-P-Se          # HgPSe3                                        #  540961 #
#                                                                            #
##############################################################################
#                                                                            #
#                           Pearson's Crystal Data                           #
#      Crystal Structure Database for Inorganic Compounds (on DVD)           #
#                              Release 2017/18                               #
#                  Editors: Pierre Villars and Karin Cenzual                 #
#                                                                            #
#   Copyright (c) ASM International & Material Phases Data System (MPDS),    #
# Switzerland & National Institute for Materials Science (NIMS), Japan, 2017 #
#                   All rights reserved. Version 2017.08                     #
#                                                                            #
#   This copy of Pearson's Crystal Data is licensed to:                      #
#   University of Alberta, Chemistry Department, 1-5 Installations License         #
#                                                                            #
##############################################################################

data_540961
_audit_creation_date                     2017-12-04
_audit_creation_method
;
Pearson's Crystal Data browser
;
#_database_code_PCD                      540961

# Entry summary

_chemical_formula_structural             'Hg P Se~3~'
_chemical_formula_sum                    'Hg P Se3'
_chemical_name_mineral                   ?
_chemical_compound_source                ?
_chemical_name_structure_type            HgPSe~3~,mS40,15
_chemical_formula_weight                 468.4

# Bibliographic data

_publ_section_title
'Die Kristallstrukturen von Hg~2~P~2~S~6~ und Hg~2~P~2~Se~6~'                 
_journal_coden_ASTM                      ZAACAB
_journal_name_full                       'Z. Anorg. Allg. Chem.'
_journal_year                            1978
_journal_volume                          447
_journal_page_first                      105
_journal_page_last                       118
_journal_language                        German
loop_
 _publ_author_name
 _publ_author_address
'Jandali M.Z.'
;
Stuttgart Hohenheim University
Institut f\"ur Chemie
Stuttgart
Germany
;
'Eulenberger G.R.'
;
Stuttgart Hohenheim University
Institut f\"ur Chemie
Stuttgart
Germany
;
'Hahn H.'
;
Stuttgart Hohenheim University
Institut f\"ur Chemie
Stuttgart
Germany
;

# Standardized crystallographic data

_cell_length_a                           6.545
_cell_length_b                           11.377
_cell_length_c                           13.61
_cell_angle_alpha                        90
_cell_angle_beta                         98.47
_cell_angle_gamma                        90
_cell_volume                             1002.4
_cell_formula_units_Z                    8
_space_group_IT_number                   15
_space_group_name_H-M_alt                'C 1 2/c 1'
loop_
 _space_group_symop_id
 _space_group_symop_operation_xyz
 1 'x, y, z'
 2 '-x, -y, -z'
 3 '-x, y, 1/2-z'
 4 'x, -y, 1/2+z'
 5 '1/2+x, 1/2+y, z'
 6 '1/2-x, 1/2-y, -z'
 7 '1/2-x, 1/2+y, 1/2-z'
 8 '1/2+x, 1/2-y, 1/2+z'
loop_
 _atom_type_symbol
 Se
 Hg
 P
loop_
 _atom_site_label
 _atom_site_type_symbol
 _atom_site_symmetry_multiplicity
 _atom_site_Wyckoff_symbol
 _atom_site_fract_x
 _atom_site_fract_y
 _atom_site_fract_z
 _atom_site_occupancy
 Se(1) Se 8 f 0.1159 0.081 0.1218 1
 Hg Hg 8 f 0.1769 0.4063 0.4299 1
 Se(2) Se 8 f 0.2161 0.3923 0.1564 1
 P P 8 f 0.2924 0.2331 0.0872 1
 Se(3) Se 8 f 0.3714 0.1966 0.3883 1


_exptl_crystal_colour                    red
_exptl_crystal_density_meas              6.05
_exptl_crystal_density_diffrn            6.21
_cell_measurement_temperature            ?
_cell_measurement_radiation              'X-rays, Mo Ka'
_cell_measurement_wavelength             0.71069
_cell_measurement_reflns_used            ?
_diffrn_ambient_temperature              ?
_diffrn_measurement_device               'automatic diffractometer'
_diffrn_measurement_device_type          'STOE STADI 2'
_diffrn_radiation_type                   'X-rays, Mo Ka'
_diffrn_radiation_wavelength             0.71069
_diffrn_reflns_number                    ?
_exptl_absorpt_coefficient_mu            52.34
_exptl_absorpt_correction_type           yes
_computing_structure_solution            'direct methods'
_refine_ls_number_parameters             ?
_refine_ls_number_reflns                 888
_refine_ls_R_factor_gt                   0.118
_refine_ls_wR_factor_gt                  ?

# End of data set 540961


