##############################################################################
#                                                                            #
# Hg-O-W           # HgWO4 rt                                      # 1100240 #
#                                                                            #
##############################################################################
#                                                                            #
#                           Pearson's Crystal Data                           #
#      Crystal Structure Database for Inorganic Compounds (on DVD)           #
#                              Release 2017/18                               #
#                  Editors: Pierre Villars and Karin Cenzual                 #
#                                                                            #
#   Copyright (c) ASM International & Material Phases Data System (MPDS),    #
# Switzerland & National Institute for Materials Science (NIMS), Japan, 2017 #
#                   All rights reserved. Version 2017.08                     #
#                                                                            #
#   This copy of Pearson's Crystal Data is licensed to:                      #
#   University of Alberta, Chemistry Department, 1-5 Installations License         #
#                                                                            #
##############################################################################

data_1100240
_audit_creation_date                     2017-12-04
_audit_creation_method
;
Pearson's Crystal Data browser
;
#_database_code_PCD                      1100240

# Entry summary

_chemical_formula_structural             'Hg W O~4~'
_chemical_formula_sum                    'Hg O4 W'
_chemical_name_mineral                   ?
_chemical_compound_source                ?
_chemical_name_structure_type            HgMoO~4~,mS24,15
_chemical_formula_weight                 448.4

# Bibliographic data

_publ_section_title
'The crystal structure of HgMoO~4~ and related compounds'                     
_journal_coden_ASTM                      ACBCAR
_journal_name_full                       'Acta Crystallogr. B'
_journal_year                            1973
_journal_volume                          29
_journal_page_first                      869
_journal_page_last                       875
_journal_language                        English
loop_
 _publ_author_name
 _publ_author_address
'Jeitschko W.'
;
Du Pont de Nemours and Co.
Central Research and Development Department
Wilmington
U.S.A. Delaware
;
'Sleight A.W.'
;
Du Pont de Nemours and Co.
Central Research and Development Department
Wilmington
U.S.A. Delaware
;

# Standardized crystallographic data

_cell_length_a                           11.375
_cell_length_b                           6.007
_cell_length_c                           5.145
_cell_angle_alpha                        90
_cell_angle_beta                         113.2
_cell_angle_gamma                        90
_cell_volume                             323.1
_cell_formula_units_Z                    4
_space_group_IT_number                   15
_space_group_name_H-M_alt                'C 1 2/c 1'
loop_
 _space_group_symop_id
 _space_group_symop_operation_xyz
 1 'x, y, z'
 2 '-x, -y, -z'
 3 '-x, y, 1/2-z'
 4 'x, -y, 1/2+z'
 5 '1/2+x, 1/2+y, z'
 6 '1/2-x, 1/2-y, -z'
 7 '1/2-x, 1/2+y, 1/2-z'
 8 '1/2+x, 1/2-y, 1/2+z'

# Atomic positions taken from type-defining entry

loop_
 _atom_type_symbol
 O
 W
 Hg
loop_
 _atom_site_label
 _atom_site_type_symbol
 _atom_site_symmetry_multiplicity
 _atom_site_Wyckoff_symbol
 _atom_site_fract_x
 _atom_site_fract_y
 _atom_site_fract_z
 _atom_site_occupancy
 O1 O 8 f 0.0982 0.0906 0.032 1
 O2 O 8 f 0.1141 0.3641 0.4688 1
 W1 W 4 e 0 0.18801 0.25 1
 Hg1 Hg 4 c 0.25 0.25 0 1


_exptl_crystal_colour                    ?
_exptl_crystal_density_meas              9.182
_exptl_crystal_density_diffrn            9.22
_cell_measurement_temperature            ?
_cell_measurement_radiation              'X-rays, Mo Ka'
_cell_measurement_reflns_used            ?
_diffrn_ambient_temperature              ?
_diffrn_measurement_device               'Guinier-Haegg film'
_diffrn_measurement_device_type          ?
_diffrn_radiation_type                   ?
_diffrn_reflns_number                    ?
_exptl_absorpt_coefficient_mu            ?
_exptl_absorpt_correction_type           ?
_computing_structure_solution            ?
_refine_ls_number_parameters             ?
_refine_ls_number_reflns                 ?
_refine_ls_R_factor_gt                   ?
_refine_ls_wR_factor_gt                  ?

# Published diffraction lines

loop_
 _refln_index_h
 _refln_index_k
 _refln_index_l
 _refln_d_spacing
 _refln_intensity_meas
 1 1 0 52.06 5
 1 1 1 32.021 9
 3 1 -1 30.58 9
 0 2 0 30.034 7
 4 0 0 26.132 6
 2 0 -2 25.672 6
 0 2 1 25.348 3
 2 2 -1 24.983 1
 0 0 2 23.627 1
 1 1 -2 23.326 1
 3 1 -2 22.737 2
 2 2 1 21.125 3
 4 2 -1 20.487 2
 1 1 2 20.102 2
 4 2 0 19.714 7
 1 3 0 19.665 3
 2 2 -2 19.515 6
 2 0 2 18.926 4
 1 3 -1 18.649 1
 6 0 -2 17.761 5
 1 3 1 17.698 4
 3 3 -1 17.44 4
 3 3 0 17.373 3
 4 2 1 16.54 2
 5 1 1 16.206 5
 2 2 2 15.999 6
 7 1 -1 15.635 5
 5 1 -3 15.438 5
 6 2 -2 15.287 4
 5 3 -1 15.03 1
 2 2 -3 14.843 1
 4 2 -3 14.603 1

# End of data set 1100240


