##############################################################################
#                                                                            #
# F-H-K-Sn         # HK3SnF8                                       #  557156 #
#                                                                            #
##############################################################################
#                                                                            #
#                           Pearson's Crystal Data                           #
#      Crystal Structure Database for Inorganic Compounds (on DVD)           #
#                              Release 2017/18                               #
#                  Editors: Pierre Villars and Karin Cenzual                 #
#                                                                            #
#   Copyright (c) ASM International & Material Phases Data System (MPDS),    #
# Switzerland & National Institute for Materials Science (NIMS), Japan, 2017 #
#                   All rights reserved. Version 2017.08                     #
#                                                                            #
#   This copy of Pearson's Crystal Data is licensed to:                      #
#   University of Alberta, Chemistry Department, 1-5 Installations License         #
#                                                                            #
##############################################################################

data_557156
_audit_creation_date                     2017-12-04
_audit_creation_method
;
Pearson's Crystal Data browser
;
#_database_code_PCD                      557156

# Entry summary

_chemical_formula_structural             'H K~3~ Sn F~8~'
_chemical_formula_sum                    'F8 H K3 Sn'
_chemical_name_mineral                   ?
_chemical_compound_source                ?
_chemical_name_structure_type            HK~3~SnF~8~,mS48,15
_chemical_formula_weight                 389.0

# Bibliographic data

_publ_section_title
'Structure cristalline du fluorostannate acide de potassium K~2~SnF~6~.KHF~2~'
_journal_coden_ASTM                      COREAF
_journal_name_full                       'C. R. Hebd. Seances Acad. Sci.'
_journal_year                            1965
_journal_volume                          260
_journal_page_first                      3664
_journal_page_last                       3665
_journal_language                        French
loop_
 _publ_author_name
 _publ_author_address
'Weiss R.'
;
Strasbourg Louis Pasteur University
Laboratoire de Chimie
Strasbourg
France
;
'Chevrier B.'
;
Strasbourg Louis Pasteur University
Laboratoire de Chimie
Strasbourg
France
;
'Fischer J.'
;
Strasbourg Louis Pasteur University
Laboratoire de Chimie
Strasbourg
France
;

# Standardized crystallographic data

_cell_length_a                           8.763
_cell_length_b                           14.07
_cell_length_c                           6.828
_cell_angle_alpha                        90
_cell_angle_beta                         93.08
_cell_angle_gamma                        90
_cell_volume                             840.6
_cell_formula_units_Z                    4
_space_group_IT_number                   15
_space_group_name_H-M_alt                'C 1 2/c 1'
loop_
 _space_group_symop_id
 _space_group_symop_operation_xyz
 1 'x, y, z'
 2 '-x, -y, -z'
 3 '-x, y, 1/2-z'
 4 'x, -y, 1/2+z'
 5 '1/2+x, 1/2+y, z'
 6 '1/2-x, 1/2-y, -z'
 7 '1/2-x, 1/2+y, 1/2-z'
 8 '1/2+x, 1/2-y, 1/2+z'
loop_
 _atom_type_symbol
 F
 K
 Sn
 H
loop_
 _atom_site_label
 _atom_site_type_symbol
 _atom_site_symmetry_multiplicity
 _atom_site_Wyckoff_symbol
 _atom_site_fract_x
 _atom_site_fract_y
 _atom_site_fract_z
 _atom_site_occupancy
 F5 F 8 f 0.043 0.177 0.549 1
 F2 F 8 f 0.122 0.516 0.022 1
 F1 F 8 f 0.218 0.18 0.194 1
 K2 K 8 f 0.279 0.401 0.22 1
 F3 F 4 e 0 0.036 0.25 1
 Sn Sn 4 e 0 0.176 0.25 1
 F4 F 4 e 0 0.322 0.25 1
 K1 K 4 e 0 0.656 0.25 1
 H H 4 b 0 0.5 0 1


_exptl_crystal_colour                    ?
_exptl_crystal_density_meas              3.02
_exptl_crystal_density_diffrn            3.07
_cell_measurement_temperature            ?
_cell_measurement_radiation              'X-rays, Cu Ka'
_cell_measurement_wavelength             1.5418
_pd_proc_wavelength                      1.5418
_cell_measurement_reflns_used            ?
_diffrn_ambient_temperature              ?
_diffrn_measurement_device               photographs
_diffrn_measurement_device_type          ?
_diffrn_radiation_type                   'X-rays, Cu Ka'
_diffrn_radiation_wavelength             1.5418
_diffrn_reflns_number                    ?
_exptl_absorpt_coefficient_mu            ?
_exptl_absorpt_correction_type           cylindrical
_computing_structure_solution            'Patterson and Fourier synthesis'
_refine_ls_number_parameters             ?
_refine_ls_number_reflns                 ?
_refine_ls_R_factor_gt                   0.147
_refine_ls_wR_factor_gt                  ?

# End of data set 557156


