##############################################################################
#                                                                            #
# H-Na-O-P-Zr      # HNaZr[PO4]2[H2O]                              # 1510424 #
#                                                                            #
##############################################################################
#                                                                            #
#                           Pearson's Crystal Data                           #
#      Crystal Structure Database for Inorganic Compounds (on DVD)           #
#                              Release 2017/18                               #
#                  Editors: Pierre Villars and Karin Cenzual                 #
#                                                                            #
#   Copyright (c) ASM International & Material Phases Data System (MPDS),    #
# Switzerland & National Institute for Materials Science (NIMS), Japan, 2017 #
#                   All rights reserved. Version 2017.08                     #
#                                                                            #
#   This copy of Pearson's Crystal Data is licensed to:                      #
#   University of Alberta, Chemistry Department, 1-5 Installations License         #
#                                                                            #
##############################################################################

data_1510424
_audit_creation_date                     2017-12-05
_audit_creation_method
;
Pearson's Crystal Data browser
;
#_database_code_PCD                      1510424

# Entry summary

_chemical_formula_structural             'H Na Zr [P O~4~]~2~ [H~2~ O]'
_chemical_formula_sum                    'H3 Na O9 P2 Zr'
_chemical_name_mineral                   ?
_chemical_compound_source                ?
_chemical_name_structure_type            HNaZr[PO~4~]~2~[H~2~O],mP52,14
_chemical_formula_weight                 323.2

# Bibliographic data

_publ_section_title
;
X-ray powder structure and Rietveld refinement of the monosodium-exchanged monohydrate of \a-zirconium phosphate, Zr(NaPO~4~)(HPO~4~).H~2~O
;
_journal_coden_ASTM                      INOCAJ
_journal_name_full                       'Inorg. Chem.'
_journal_year                            1989
_journal_volume                          28
_journal_page_first                      1706
_journal_page_last                       1710
_journal_language                        English
loop_
 _publ_author_name
 _publ_author_address
'Rudolf P.R.'
;
Texas College Station Agricultural and Mechanical University
Department of Chemistry
College Station
U.S.A. Texas
;
'Clearfield A.'
;
Texas College Station Agricultural and Mechanical University
Department of Chemistry
College Station
U.S.A. Texas
;

# Standardized crystallographic data

_cell_length_a                           8.8264
_cell_length_b                           5.3494
_cell_length_c                           16.0275
_cell_angle_alpha                        90
_cell_angle_beta                         101.857
_cell_angle_gamma                        90
_cell_volume                             740.6
_cell_formula_units_Z                    4
_space_group_IT_number                   14
_space_group_name_H-M_alt                'P 1 21/c 1'
loop_
 _space_group_symop_id
 _space_group_symop_operation_xyz
 1 'x, y, z'
 2 '-x, -y, -z'
 3 '-x, 1/2+y, 1/2-z'
 4 'x, 1/2-y, 1/2+z'
loop_
 _atom_type_symbol
 Na
 O
 P
 Zr
 OH2
 OH
loop_
 _atom_site_label
 _atom_site_type_symbol
 _atom_site_symmetry_multiplicity
 _atom_site_Wyckoff_symbol
 _atom_site_fract_x
 _atom_site_fract_y
 _atom_site_fract_z
 _atom_site_occupancy
 Na Na 4 e 0.003 0.213 0.22 1
 O5 O 4 e 0.021 0.254 0.408 1
 P2 P 4 e 0.156 0.764 0.093 1
 O6 O 4 e 0.195 0.5552 0.038 1
 O4 O 4 e 0.198 0.028 0.064 1
 Zr Zr 4 e 0.2419 0.2416 0.4716 1
 O10 O 4 e 0.25 0.706 0.182 1
 O12 OH2 4 e 0.283 0.254 0.224 1
 O3 O 4 e 0.295 0.001 0.383 1
 O1 O 4 e 0.465 0.271 0.035 1
 O7 OH 4 e 0.54 0.225 0.194 1
 P1 P 4 e 0.606 0.256 0.112 1
 O2 O 4 e 0.706 0.026 0.101 1


_exptl_crystal_colour                    ?
_exptl_crystal_density_meas              ?
_exptl_crystal_density_diffrn            2.90
_cell_measurement_temperature            ?
_cell_measurement_radiation              'X-rays, Cu Ka'
_cell_measurement_wavelength             1.54184
_pd_proc_wavelength                      1.54184
_cell_measurement_reflns_used            ?
_diffrn_ambient_temperature              ?
_diffrn_measurement_device               'automatic diffractometer'
_diffrn_measurement_device_type          ?
_diffrn_radiation_type                   'X-rays, Cu Ka'
_diffrn_radiation_wavelength             1.54184
_diffrn_reflns_number                    ?
_diffrn_reflns_theta_min                 5
_diffrn_reflns_theta_max                 40
_pd_proc_2theta_range_min                10
_pd_proc_2theta_range_max                80
_exptl_absorpt_coefficient_mu            ?
_exptl_absorpt_correction_type           ?
_computing_structure_solution            'Patterson and Fourier synthesis'
_refine_ls_number_parameters             ?
_refine_ls_number_reflns                 ?
_refine_ls_R_factor_gt                   0.131
_refine_ls_wR_factor_gt                  ?
_pd_proc_ls_proof_R_factor               0.196
_pd_proc_ls_proof_wR_factor              0.156
_refine_ls_R_I_factor                    ?

# End of data set 1510424


