##############################################################################
#                                                                            #
# Ho-Ni-P          # Ho2Ni12P7                                     #  539809 #
#                                                                            #
##############################################################################
#                                                                            #
#                           Pearson's Crystal Data                           #
#      Crystal Structure Database for Inorganic Compounds (on DVD)           #
#                              Release 2017/18                               #
#                  Editors: Pierre Villars and Karin Cenzual                 #
#                                                                            #
#   Copyright (c) ASM International & Material Phases Data System (MPDS),    #
# Switzerland & National Institute for Materials Science (NIMS), Japan, 2017 #
#                   All rights reserved. Version 2017.08                     #
#                                                                            #
#   This copy of Pearson's Crystal Data is licensed to:                      #
#   University of Alberta, Chemistry Department, 1-5 Installations License         #
#                                                                            #
##############################################################################

data_539809
_audit_creation_date                     2017-12-04
_audit_creation_method
;
Pearson's Crystal Data browser
;
#_database_code_PCD                      539809

# Entry summary

_chemical_formula_structural             'Ho~2~ Ni~12~ P~7~'
_chemical_formula_sum                    'Ho2 Ni12 P7'
_chemical_name_mineral                   ?
_chemical_compound_source                ?
_chemical_name_structure_type            Zr~2~Fe~12~P~7~,hP21,174
_chemical_formula_weight                 1251.1

# Bibliographic data

_publ_section_title
;
Syntheses, crystal structures and properties of Ho~2~Ni~12~P~7~ and Ho~6~Ni~20~P~13~
;
_journal_coden_ASTM                      JCOMAH
_journal_name_full                       'J. Less-Common Met.'
_journal_year                            1986
_journal_volume                          118
_journal_page_first                      191
_journal_page_last                       200
_journal_language                        English
loop_
 _publ_author_name
 _publ_author_address
'Pivan J.Y.'
;
Rennes I University
Laboratoire de Chimie Min\'erale
Rennes
France
;
'Gu\'erin R.'
;
Rennes I University
Laboratoire de Chimie Min\'erale
Rennes
France
;
'Padiou J.'
;
Rennes I University
Laboratoire de Chimie Min\'erale
Rennes
France
;
'Sergent M.'
;
Rennes I University
Laboratoire de Chimie Min\'erale
Rennes
France
;

# Standardized crystallographic data

_cell_length_a                           9.063
_cell_length_b                           9.063
_cell_length_c                           3.673
_cell_angle_alpha                        90
_cell_angle_beta                         90
_cell_angle_gamma                        120
_cell_volume                             261.27
_cell_formula_units_Z                    1
_space_group_IT_number                   174
_space_group_name_H-M_alt                'P -6'
loop_
 _space_group_symop_id
 _space_group_symop_operation_xyz
 1 'x, y, z'
 2 '-x+y, -x, -z'
 3 '-x+y, -x, z'
 4 '-y, x-y, -z'
 5 '-y, x-y, z'
 6 'x, y, -z'
loop_
 _atom_type_symbol
 Ni
 P
 Ho
loop_
 _atom_site_label
 _atom_site_type_symbol
 _atom_site_symmetry_multiplicity
 _atom_site_Wyckoff_symbol
 _atom_site_fract_x
 _atom_site_fract_y
 _atom_site_fract_z
 _atom_site_occupancy
 Ni(2) Ni 3 k 0.0495 0.4324 0.5 1
 Ni(4) Ni 3 k 0.2156 0.1214 0.5 1
 P(2) P 3 k 0.2932 0.4056 0.5 1
 Ni(3) Ni 3 j 0.1223 0.2766 0 1
 P(1) P 3 j 0.4076 0.1146 0 1
 Ni(1) Ni 3 j 0.4338 0.3743 0 1
 Ho(1) Ho 1 f 0.666667 0.333333 0.5 1
 Ho(2) Ho 1 c 0.333333 0.666667 0 1
 P(3) P 1 a 0 0 0 1


_exptl_crystal_colour                    ?
_exptl_crystal_density_meas              ?
_exptl_crystal_density_diffrn            7.95
_cell_measurement_temperature            ?
_cell_measurement_radiation              'X-rays, Mo Ka'
_cell_measurement_wavelength             0.71071
_cell_measurement_reflns_used            25
_diffrn_ambient_temperature              ?
_diffrn_measurement_device               'automatic diffractometer'
_diffrn_measurement_device_type          Nonius
_diffrn_radiation_type                   'X-rays, Mo Ka'
_diffrn_radiation_wavelength             0.71071
_diffrn_reflns_number                    ?
_exptl_absorpt_coefficient_mu            37.43
_exptl_absorpt_correction_type           ?
_computing_structure_solution            'starting values from the literature'
_refine_ls_number_parameters             ?
_refine_ls_number_reflns                 272
_refine_ls_R_factor_gt                   0.030
_refine_ls_wR_factor_gt                  0.036

# End of data set 539809


