##############################################################################
#                                                                            #
# Ge-Ho-Os         # Ho2OsGe2                                      #  542740 #
#                                                                            #
##############################################################################
#                                                                            #
#                           Pearson's Crystal Data                           #
#      Crystal Structure Database for Inorganic Compounds (on DVD)           #
#                              Release 2017/18                               #
#                  Editors: Pierre Villars and Karin Cenzual                 #
#                                                                            #
#   Copyright (c) ASM International & Material Phases Data System (MPDS),    #
# Switzerland & National Institute for Materials Science (NIMS), Japan, 2017 #
#                   All rights reserved. Version 2017.08                     #
#                                                                            #
#   This copy of Pearson's Crystal Data is licensed to:                      #
#   University of Alberta, Chemistry Department, 1-5 Installations License         #
#                                                                            #
##############################################################################

data_542740
_audit_creation_date                     2017-12-04
_audit_creation_method
;
Pearson's Crystal Data browser
;
#_database_code_PCD                      542740

# Entry summary

_chemical_formula_structural             'Ho~2~ Os Ge~2~'
_chemical_formula_sum                    'Ge2 Ho2 Os'
_chemical_name_mineral                   ?
_chemical_compound_source                ?
_chemical_name_structure_type            Sc~2~CoSi~2~,mS20,12
_chemical_formula_weight                 665.2

# Bibliographic data

_publ_section_title
;
New ternary holmium-transition metal-germanides: Ho~2~OsGe~2~ of Sc~2~CoSi~2~ type and Ho~3~Pd~4~Ge~4~ of Gd~3~Cu~4~Ge~4~ type
;
_journal_coden_ASTM                      JALCEU
_journal_name_full                       'J. Alloys Compd.'
_journal_year                            1991
_journal_volume                          176
_journal_page_first                      329
_journal_page_last                       335
_journal_language                        English
loop_
 _publ_author_name
 _publ_author_address
'Gladyshevskii R.E.'
;
Geneva University
Laboratoire de Cristallographie aux Rayons X
Geneva
Switzerland
;

# Standardized crystallographic data

_cell_length_a                           10.691
_cell_length_b                           4.2618
_cell_length_c                           10.05
_cell_angle_alpha                        90
_cell_angle_beta                         118.07
_cell_angle_gamma                        90
_cell_volume                             404.05
_cell_formula_units_Z                    4
_space_group_IT_number                   12
_space_group_name_H-M_alt                'C 1 2/m 1'
loop_
 _space_group_symop_id
 _space_group_symop_operation_xyz
 1 'x, y, z'
 2 '-x, -y, -z'
 3 '-x, y, -z'
 4 'x, -y, z'
 5 '1/2+x, 1/2+y, z'
 6 '1/2-x, 1/2-y, -z'
 7 '1/2-x, 1/2+y, -z'
 8 '1/2+x, 1/2-y, z'
loop_
 _atom_type_symbol
 Ho
 Os
 Ge
loop_
 _atom_site_label
 _atom_site_type_symbol
 _atom_site_symmetry_multiplicity
 _atom_site_Wyckoff_symbol
 _atom_site_fract_x
 _atom_site_fract_y
 _atom_site_fract_z
 _atom_site_occupancy
 Ho1 Ho 4 i -0.0032 0 0.3253 1
 Ho2 Ho 4 i 0.1848 0 0.113 1
 Os Os 4 i 0.271 0 0.632 1
 Ge1 Ge 4 i 0.3585 0 0.4386 1
 Ge2 Ge 4 i 0.4876 0 0.1251 1


_exptl_crystal_colour                    ?
_exptl_crystal_density_meas              ?
_exptl_crystal_density_diffrn            10.94
_cell_measurement_temperature            293
_cell_measurement_radiation              'X-rays, Mo Ka'
_cell_measurement_wavelength             0.71073
_cell_measurement_reflns_used            26
_diffrn_ambient_temperature              293
_diffrn_measurement_device               'automatic diffractometer'
_diffrn_measurement_device_type          'Philips PW1100'
_diffrn_radiation_type                   'X-rays, Mo Ka'
_diffrn_radiation_wavelength             0.71073
_diffrn_reflns_number                    1372
_exptl_absorpt_coefficient_mu            88.723
_exptl_absorpt_correction_type           ?
_computing_structure_solution            'starting values from the literature'
_refine_ls_number_parameters             32
_refine_ls_number_reflns                 490
_refine_ls_R_factor_gt                   0.068
_refine_ls_wR_factor_gt                  0.055

# End of data set 542740


