##############################################################################
#                                                                            #
# Ho-O-W           # Ho2WO6 hp                                     #  550789 #
#                                                                            #
##############################################################################
#                                                                            #
#                           Pearson's Crystal Data                           #
#      Crystal Structure Database for Inorganic Compounds (on DVD)           #
#                              Release 2017/18                               #
#                  Editors: Pierre Villars and Karin Cenzual                 #
#                                                                            #
#   Copyright (c) ASM International & Material Phases Data System (MPDS),    #
# Switzerland & National Institute for Materials Science (NIMS), Japan, 2017 #
#                   All rights reserved. Version 2017.08                     #
#                                                                            #
#   This copy of Pearson's Crystal Data is licensed to:                      #
#   University of Alberta, Chemistry Department, 1-5 Installations License         #
#                                                                            #
##############################################################################

data_550789
_audit_creation_date                     2017-12-04
_audit_creation_method
;
Pearson's Crystal Data browser
;
#_database_code_PCD                      550789

# Entry summary

_chemical_formula_structural             'Ho~2~ W O~6~'
_chemical_formula_sum                    'Ho2 O6 W'
_chemical_name_mineral                   ?
_chemical_compound_source                ?
_chemical_name_structure_type            Y~2~WO~6~,mP36,13
_chemical_formula_weight                 609.7

# Bibliographic data

_publ_section_title
;
Growth and chief properties of crystals of rare earth and yttrium oxytungstates, Ln~2~WO~6~
;
_journal_coden_ASTM                      INOMAF
_journal_name_full                       'Inorg. Mater.'
_journal_year                            1975
_journal_volume                          11
_journal_page_first                      73
_journal_page_last                       76
_journal_language                        English
loop_
 _publ_author_name
 _publ_author_address
'Yanovskii V.K.'
;
Moscow M.V. Lomonosov State University
Moscow
Russia
;
'Voronkova V.I.'
;
Moscow M.V. Lomonosov State University
Moscow
Russia
;

# Standardized crystallographic data

_cell_length_a                           7.568
_cell_length_b                           5.33
_cell_length_c                           11.35
_cell_angle_alpha                        90
_cell_angle_beta                         104.45
_cell_angle_gamma                        90
_cell_volume                             443.3
_cell_formula_units_Z                    4
_space_group_IT_number                   13
_space_group_name_H-M_alt                'P 1 2/c 1'
loop_
 _space_group_symop_id
 _space_group_symop_operation_xyz
 1 'x, y, z'
 2 '-x, -y, -z'
 3 '-x, y, 1/2-z'
 4 'x, -y, 1/2+z'

# Atomic positions taken from type-defining entry

loop_
 _atom_type_symbol
 O
 W
 Ho
loop_
 _atom_site_label
 _atom_site_type_symbol
 _atom_site_symmetry_multiplicity
 _atom_site_Wyckoff_symbol
 _atom_site_fract_x
 _atom_site_fract_y
 _atom_site_fract_z
 _atom_site_occupancy
 O1 O 4 g 0.013 0.638 0.389 1
 O2 O 4 g 0.133 0.15 0.451 1
 O3 O 4 g 0.21 0.012 0.228 1
 W1 W 4 g 0.22 0.2524 0.6121 1
 O4 O 4 g 0.284 0.537 0.268 1
 O5 O 4 g 0.354 0.477 0.068 1
 O6 O 4 g 0.435 0.035 0.604 1
 Ho1 Ho 4 g 0.6994 0.1921 0.5782 1
 Ho2 Ho 2 f 0.5 0.2634 0.25 1
 Ho3 Ho 2 e 0 0.3158 0.25 1


_exptl_crystal_colour                    ?
_exptl_crystal_density_meas              8.94
_exptl_crystal_density_diffrn            9.13
_cell_measurement_temperature            ?
_cell_measurement_radiation              X-rays
_cell_measurement_reflns_used            ?
_diffrn_ambient_temperature              ?
_diffrn_measurement_device               'Laue and oscillation photographs'
_diffrn_measurement_device_type          ?
_diffrn_radiation_type                   ?
_diffrn_reflns_number                    ?
_exptl_absorpt_coefficient_mu            ?
_exptl_absorpt_correction_type           ?
_computing_structure_solution            ?
_refine_ls_number_parameters             ?
_refine_ls_number_reflns                 ?
_refine_ls_R_factor_gt                   ?
_refine_ls_wR_factor_gt                  ?

# End of data set 550789


