##############################################################################
#                                                                            #
# Ho-Ni-P          # Ho3Ni10P6.5                                   # 1100715 #
#                                                                            #
##############################################################################
#                                                                            #
#                           Pearson's Crystal Data                           #
#      Crystal Structure Database for Inorganic Compounds (on DVD)           #
#                              Release 2017/18                               #
#                  Editors: Pierre Villars and Karin Cenzual                 #
#                                                                            #
#   Copyright (c) ASM International & Material Phases Data System (MPDS),    #
# Switzerland & National Institute for Materials Science (NIMS), Japan, 2017 #
#                   All rights reserved. Version 2017.08                     #
#                                                                            #
#   This copy of Pearson's Crystal Data is licensed to:                      #
#   University of Alberta, Chemistry Department, 1-5 Installations License         #
#                                                                            #
##############################################################################

data_1100715
_audit_creation_date                     2017-12-04
_audit_creation_method
;
Pearson's Crystal Data browser
;
#_database_code_PCD                      1100715

# Entry summary

_chemical_formula_structural             'Ho~6~ Ni~20~ P~13~'
_chemical_formula_sum                    'Ho6 Ni20 P13'
_chemical_name_mineral                   ?
_chemical_compound_source                ?
_chemical_name_structure_type            Zr~6~Ni~20~P~13~,hP39,174
_chemical_formula_weight                 2566.2

# Bibliographic data

_publ_section_title
;
A New Classification Scheme to Describe and Predict Structure Types in Pnictide and Silicide Chemistry
;
_journal_coden_ASTM                      JSSCBI
_journal_name_full                       'J. Solid State Chem.'
_journal_year                            1987
_journal_volume                          68
_journal_page_first                      11
_journal_page_last                       21
_journal_language                        English
loop_
 _publ_author_name
 _publ_author_address
'Pivan J.Y.'
;
Rennes I University
Laboratoire de Chimie Min\'erale
Rennes
France
;
'Gu\'erin R.'
;
Rennes I University
Laboratoire de Chimie Min\'erale
Rennes
France
;
'Sergent M.'
;
Rennes I University
Laboratoire de Chimie Min\'erale
Rennes
France
;

# Standardized crystallographic data

_cell_length_a                           12.676
_cell_length_b                           12.676
_cell_length_c                           3.73
_cell_angle_alpha                        90
_cell_angle_beta                         90
_cell_angle_gamma                        120
_cell_volume                             519
_cell_formula_units_Z                    1
_space_group_IT_number                   174
_space_group_name_H-M_alt                'P -6'
loop_
 _space_group_symop_id
 _space_group_symop_operation_xyz
 1 'x, y, z'
 2 '-x+y, -x, -z'
 3 '-x+y, -x, z'
 4 '-y, x-y, -z'
 5 '-y, x-y, z'
 6 'x, y, -z'

# Atomic positions taken from type-defining entry

loop_
 _atom_type_symbol
 Ni
 Ho
 P
loop_
 _atom_site_label
 _atom_site_type_symbol
 _atom_site_symmetry_multiplicity
 _atom_site_Wyckoff_symbol
 _atom_site_fract_x
 _atom_site_fract_y
 _atom_site_fract_z
 _atom_site_occupancy
 Ni1 Ni 3 k 0.0183 0.586 0.5 1
 Ni2 Ni 3 k 0.0789 0.1623 0.5 1
 Ho1 Ho 3 k 0.1888 0.4732 0.5 1
 P1 P 3 k 0.289 0.2312 0.5 1
 Ni3 Ni 3 k 0.3238 0.0716 0.5 1
 P2 P 3 k 0.5279 0.1406 0.5 1
 P3 P 3 j 0.0483 0.2834 0 1
 P4 P 3 j 0.139 0.613 0 1
 Ni4 Ni 3 j 0.2012 0.1068 0 1
 Ni5 Ni 3 j 0.2473 0.3256 0 1
 Ni6 Ni 3 j 0.4414 0.0213 0 1
 Ho2 Ho 3 j 0.4739 0.2799 0 1
 Ni7 Ni 1 f 0.666667 0.333333 0.5 1
 Ni8 Ni 1 c 0.333333 0.666667 0 1
 P5 P 1 a 0 0 0 1


_exptl_crystal_colour                    ?
_exptl_crystal_density_meas              ?
_exptl_crystal_density_diffrn            8.21
_cell_measurement_temperature            ?
_cell_measurement_radiation              ?
_cell_measurement_reflns_used            ?
_diffrn_ambient_temperature              ?
_diffrn_measurement_device               ?
_diffrn_measurement_device_type          ?
_diffrn_radiation_type                   ?
_diffrn_reflns_number                    ?
_exptl_absorpt_coefficient_mu            ?
_exptl_absorpt_correction_type           ?
_computing_structure_solution            ?
_refine_ls_number_parameters             ?
_refine_ls_number_reflns                 ?
_refine_ls_R_factor_gt                   ?
_refine_ls_wR_factor_gt                  ?

# End of data set 1100715


