##############################################################################
#                                                                            #
# Ho-Pb            # Ho5Pb3                                        #  451480 #
#                                                                            #
##############################################################################
#                                                                            #
#                           Pearson's Crystal Data                           #
#      Crystal Structure Database for Inorganic Compounds (on DVD)           #
#                              Release 2017/18                               #
#                  Editors: Pierre Villars and Karin Cenzual                 #
#                                                                            #
#   Copyright (c) ASM International & Material Phases Data System (MPDS),    #
# Switzerland & National Institute for Materials Science (NIMS), Japan, 2017 #
#                   All rights reserved. Version 2017.08                     #
#                                                                            #
#   This copy of Pearson's Crystal Data is licensed to:                      #
#   University of Alberta, Chemistry Department, 1-5 Installations License         #
#                                                                            #
##############################################################################

data_451480
_audit_creation_date                     2017-12-01
_audit_creation_method
;
Pearson's Crystal Data browser
;
#_database_code_PCD                      451480

# Entry summary

_chemical_formula_structural             'Ho~5~ Pb~3~'
_chemical_formula_sum                    'Ho5 Pb3'
_chemical_name_mineral                   ?
_chemical_compound_source                ?
_chemical_name_structure_type            Mn~5~Si~3~,hP16,193
_chemical_formula_weight                 1446.3

# Bibliographic data

_publ_section_title
'D8~8~ Phases of the Rare Earth Elements with Tin and Lead'                   
_journal_coden_ASTM                      ACCRA9
_journal_name_full                       'Acta Crystallogr.'
_journal_year                            1967
_journal_volume                          22
_journal_page_first                      551
_journal_page_last                       555
_journal_language                        English
loop_
 _publ_author_name
 _publ_author_address
'Jeitschko W.'
;
Pennsylvania Philadelphia University
Department of Metallurgical Engineering
Philadelphia
U.S.A. Pennsylvania
;
'Parth\'e E.'
;
Pennsylvania Philadelphia University
Department of Metallurgical Engineering
Philadelphia
U.S.A. Pennsylvania
;

# Standardized crystallographic data

_cell_length_a                           8.915
_cell_length_b                           8.915
_cell_length_c                           6.541
_cell_angle_alpha                        90
_cell_angle_beta                         90
_cell_angle_gamma                        120
_cell_volume                             450.21
_cell_formula_units_Z                    2
_space_group_IT_number                   193
_space_group_name_H-M_alt                'P 63/m c m'
loop_
 _space_group_symop_id
 _space_group_symop_operation_xyz
 1 'x, y, z'
 2 '-x+y, -x, 1/2-z'
 3 '-x+y, -x, z'
 4 '-x+y, y, -z'
 5 '-x+y, y, 1/2+z'
 6 '-x, -x+y, 1/2-z'
 7 '-x, -x+y, z'
 8 '-x, -y, -z'
 9 '-x, -y, 1/2+z'
 10 '-y, -x, -z'
 11 '-y, -x, 1/2+z'
 12 '-y, x-y, 1/2-z'
 13 '-y, x-y, z'
 14 'x, x-y, -z'
 15 'x, x-y, 1/2+z'
 16 'x, y, 1/2-z'
 17 'x-y, -y, 1/2-z'
 18 'x-y, -y, z'
 19 'x-y, x, -z'
 20 'x-y, x, 1/2+z'
 21 'y, -x+y, -z'
 22 'y, -x+y, 1/2+z'
 23 'y, x, 1/2-z'
 24 'y, x, z'
loop_
 _atom_type_symbol
 Ho
 Pb
loop_
 _atom_site_label
 _atom_site_type_symbol
 _atom_site_symmetry_multiplicity
 _atom_site_Wyckoff_symbol
 _atom_site_fract_x
 _atom_site_fract_y
 _atom_site_fract_z
 _atom_site_occupancy
 Ho2 Ho 6 g 0.238 0 0.25 1
 Pb Pb 6 g 0.606 0 0.25 1
 Ho1 Ho 4 d 0.333333 0.666667 0 1


_exptl_crystal_colour                    ?
_exptl_crystal_density_meas              ?
_exptl_crystal_density_diffrn            10.67
_cell_measurement_temperature            ?
_cell_measurement_radiation              'X-rays, Cr Ka'
_cell_measurement_wavelength             2.28962
_pd_proc_wavelength                      2.28962
_cell_measurement_reflns_used            ?
_diffrn_ambient_temperature              ?
_diffrn_measurement_device               'Debye-Scherrer film'
_diffrn_measurement_device_type          ?
_diffrn_radiation_type                   'X-rays, Cr Ka'
_diffrn_radiation_wavelength             2.28962
_diffrn_reflns_number                    ?
_exptl_absorpt_coefficient_mu            ?
_exptl_absorpt_correction_type           ?
_computing_structure_solution            'starting values from the literature'
_refine_ls_number_parameters             ?
_refine_ls_number_reflns                 ?
_refine_ls_R_factor_gt                   0.10
_refine_ls_wR_factor_gt                  ?
_pd_proc_ls_proof_R_factor               ?
_pd_proc_ls_proof_wR_factor              ?
_refine_ls_R_I_factor                    ?

# Published diffraction lines

loop_
 _refln_index_h
 _refln_index_k
 _refln_index_l
 _refln_d_spacing
 _refln_intensity_meas
 1 1 1 36.5 0.6
 0 0 2 32.5 2.5
 1 0 2 30 0.9
 2 1 0 29 2.5
 2 1 1 26.5 10
 1 1 2 26.2 7
 3 0 0 25.6 4
 2 0 2 24.82 1.1
 3 1 0 21.31 0.6
 2 2 1 21.03 1.0
 3 1 1 20.27 1.7
 2 2 2 18.35 1.7
 2 1 3 17.42 3
 3 2 1 17.06 0.7
 4 1 0 16.82 0.6
 4 0 2 16.58 0.8
 0 0 4 16.32 1.3
 2 2 3 15.56 1.2
 5 0 0 15.41 0.8
 3 1 3 15.26 0.9
 4 1 2 14.95 0.3
 4 2 0 14.57 0.9
 3 3 1 14.47 1.1
 2 1 4 14.23 1.6
 5 0 2 13.94 4
 5 1 0 13.85 0.3
 3 0 4 13.78 2.3
 5 1 1 13.53 1.5
 4 1 3 13.316 0.6
 3 1 4 12.986 0.7
 4 0 4 12.456 1.3
 5 2 0 12.359 0.8
 3 3 3 12.275 1.6
 5 2 1 12.135 2.5
 6 0 2 11.97 6
 2 1 5 11.934 6
 6 1 0 11.772 9
 4 1 4 11.699 ?

# End of data set 451480


