##############################################################################
#                                                                            #
# Ho-Sb            # Ho5Sb3                                        #  542258 #
#                                                                            #
##############################################################################
#                                                                            #
#                           Pearson's Crystal Data                           #
#      Crystal Structure Database for Inorganic Compounds (on DVD)           #
#                              Release 2017/18                               #
#                  Editors: Pierre Villars and Karin Cenzual                 #
#                                                                            #
#   Copyright (c) ASM International & Material Phases Data System (MPDS),    #
# Switzerland & National Institute for Materials Science (NIMS), Japan, 2017 #
#                   All rights reserved. Version 2017.08                     #
#                                                                            #
#   This copy of Pearson's Crystal Data is licensed to:                      #
#   University of Alberta, Chemistry Department, 1-5 Installations License         #
#                                                                            #
##############################################################################

data_542258
_audit_creation_date                     2017-12-04
_audit_creation_method
;
Pearson's Crystal Data browser
;
#_database_code_PCD                      542258

# Entry summary

_chemical_formula_structural             'Ho~5~ Sb~3~'
_chemical_formula_sum                    'Ho5 Sb3'
_chemical_name_mineral                   ?
_chemical_compound_source                ?
_chemical_name_structure_type            Mn~5~Si~3~,hP16,193
_chemical_formula_weight                 1189.9

# Bibliographic data

_publ_section_title
'Antimonides with D8~8~ and Hf~5~Sn~3~Cu Structure Types'                     
_journal_coden_ASTM                      ACBCAR
_journal_name_full                       'Acta Crystallogr. B'
_journal_year                            1968
_journal_volume                          24
_journal_page_first                      456
_journal_page_last                       458
_journal_language                        English
loop_
 _publ_author_name
 _publ_author_address
'Rieger W.'
;
Pennsylvania Philadelphia University
Department of Metallurgy and Materials
Philadelphia
U.S.A. Pennsylvania
;
'Parth\'e E.'
;
Pennsylvania Philadelphia University
Department of Metallurgy and Materials
Philadelphia
U.S.A. Pennsylvania
;

# Standardized crystallographic data

_cell_length_a                           8.851
_cell_length_b                           8.851
_cell_length_c                           6.234
_cell_angle_alpha                        90
_cell_angle_beta                         90
_cell_angle_gamma                        120
_cell_volume                             422.94
_cell_formula_units_Z                    2
_space_group_IT_number                   193
_space_group_name_H-M_alt                'P 63/m c m'
loop_
 _space_group_symop_id
 _space_group_symop_operation_xyz
 1 'x, y, z'
 2 '-x+y, -x, 1/2-z'
 3 '-x+y, -x, z'
 4 '-x+y, y, -z'
 5 '-x+y, y, 1/2+z'
 6 '-x, -x+y, 1/2-z'
 7 '-x, -x+y, z'
 8 '-x, -y, -z'
 9 '-x, -y, 1/2+z'
 10 '-y, -x, -z'
 11 '-y, -x, 1/2+z'
 12 '-y, x-y, 1/2-z'
 13 '-y, x-y, z'
 14 'x, x-y, -z'
 15 'x, x-y, 1/2+z'
 16 'x, y, 1/2-z'
 17 'x-y, -y, 1/2-z'
 18 'x-y, -y, z'
 19 'x-y, x, -z'
 20 'x-y, x, 1/2+z'
 21 'y, -x+y, -z'
 22 'y, -x+y, 1/2+z'
 23 'y, x, 1/2-z'
 24 'y, x, z'
loop_
 _atom_type_symbol
 Ho
 Sb
loop_
 _atom_site_label
 _atom_site_type_symbol
 _atom_site_symmetry_multiplicity
 _atom_site_Wyckoff_symbol
 _atom_site_fract_x
 _atom_site_fract_y
 _atom_site_fract_z
 _atom_site_occupancy
 Ho2 Ho 6 g 0.2437 0 0.25 1
 Sb Sb 6 g 0.6085 0 0.25 1
 Ho1 Ho 4 d 0.333333 0.666667 0 1


_exptl_crystal_colour                    ?
_exptl_crystal_density_meas              ?
_exptl_crystal_density_diffrn            9.34
_cell_measurement_temperature            ?
_cell_measurement_radiation              'X-rays, Cu Ka1'
_cell_measurement_wavelength             1.54051
_pd_proc_wavelength                      1.54051
_cell_measurement_reflns_used            ?
_diffrn_ambient_temperature              ?
_diffrn_measurement_device               diffractometer
_diffrn_measurement_device_type          ?
_diffrn_radiation_type                   'X-rays, Cu Ka1'
_diffrn_radiation_wavelength             1.54051
_diffrn_reflns_number                    ?
_exptl_absorpt_coefficient_mu            ?
_exptl_absorpt_correction_type           ?
_computing_structure_solution            'starting values from the literature'
_refine_ls_number_parameters             ?
_refine_ls_number_reflns                 ?
_refine_ls_R_factor_gt                   0.097
_refine_ls_wR_factor_gt                  ?
_pd_proc_ls_proof_R_factor               ?
_pd_proc_ls_proof_wR_factor              ?
_refine_ls_R_I_factor                    ?

# Published diffraction lines

loop_
 _refln_index_h
 _refln_index_k
 _refln_index_l
 _refln_d_spacing
 _refln_intensity_meas
 1 0 0 100.4 45
 1 1 0 301.5 8
 2 0 0 404.3 22
 1 1 1 457.4 8
 0 0 2 610.1 281
 2 1 0 707 471
 1 0 2 714.2 471
 2 1 1 859.7 1000
 3 0 0 906.3 1323
 1 1 2 916.3 1323
 2 0 2 1014.2 84
 3 1 0 1313.6 40
 2 2 1 1367.2 71
 3 1 1 1464.4 113
 3 0 2 1520.5 5
 4 0 0 1618.6 13
 2 2 2 1864 174
 3 2 0 1921.4 29
 3 2 1 2072.3 340
 2 1 3 2085.1 340
 4 1 0 2124.9 60
 4 0 2 2228.7 83
 0 0 4 2444.3 130
 5 0 0 2525.8 97
 3 2 2 2530.2 97
 2 2 3 2590.7 22
 3 1 3 2686.7 45
 3 3 0 2737.8 30
 4 2 0 2826.9 65
 2 0 4 2842.7 65
 3 3 1 2879 53
 4 2 1 2982.3 32
 5 1 0 3135.1 190
 2 1 4 3151.3 72
 5 1 1 3286.6 96
 3 3 2 3342.5 150
 3 0 4 3355.7 150
 4 2 2 3438.3 13
 4 3 1 3892.3 17
 5 2 0 3934.8 8
 5 2 1 4100.9 60

# End of data set 542258


