##############################################################################
#                                                                            #
# Ho-Sn            # Ho5Sn3                                        #  451478 #
#                                                                            #
##############################################################################
#                                                                            #
#                           Pearson's Crystal Data                           #
#      Crystal Structure Database for Inorganic Compounds (on DVD)           #
#                              Release 2017/18                               #
#                  Editors: Pierre Villars and Karin Cenzual                 #
#                                                                            #
#   Copyright (c) ASM International & Material Phases Data System (MPDS),    #
# Switzerland & National Institute for Materials Science (NIMS), Japan, 2017 #
#                   All rights reserved. Version 2017.08                     #
#                                                                            #
#   This copy of Pearson's Crystal Data is licensed to:                      #
#   University of Alberta, Chemistry Department, 1-5 Installations License         #
#                                                                            #
##############################################################################

data_451478
_audit_creation_date                     2017-12-01
_audit_creation_method
;
Pearson's Crystal Data browser
;
#_database_code_PCD                      451478

# Entry summary

_chemical_formula_structural             'Ho~5~ Sn~3~'
_chemical_formula_sum                    'Ho5 Sn3'
_chemical_name_mineral                   ?
_chemical_compound_source                ?
_chemical_name_structure_type            Mn~5~Si~3~,hP16,193
_chemical_formula_weight                 1180.7

# Bibliographic data

_publ_section_title
'D8~8~ Phases of the Rare Earth Elements with Tin and Lead'                   
_journal_coden_ASTM                      ACCRA9
_journal_name_full                       'Acta Crystallogr.'
_journal_year                            1967
_journal_volume                          22
_journal_page_first                      551
_journal_page_last                       555
_journal_language                        English
loop_
 _publ_author_name
 _publ_author_address
'Jeitschko W.'
;
Pennsylvania Philadelphia University
Department of Metallurgical Engineering
Philadelphia
U.S.A. Pennsylvania
;
'Parth\'e E.'
;
Pennsylvania Philadelphia University
Department of Metallurgical Engineering
Philadelphia
U.S.A. Pennsylvania
;

# Standardized crystallographic data

_cell_length_a                           8.847
_cell_length_b                           8.847
_cell_length_c                           6.458
_cell_angle_alpha                        90
_cell_angle_beta                         90
_cell_angle_gamma                        120
_cell_volume                             437.74
_cell_formula_units_Z                    2
_space_group_IT_number                   193
_space_group_name_H-M_alt                'P 63/m c m'
loop_
 _space_group_symop_id
 _space_group_symop_operation_xyz
 1 'x, y, z'
 2 '-x+y, -x, 1/2-z'
 3 '-x+y, -x, z'
 4 '-x+y, y, -z'
 5 '-x+y, y, 1/2+z'
 6 '-x, -x+y, 1/2-z'
 7 '-x, -x+y, z'
 8 '-x, -y, -z'
 9 '-x, -y, 1/2+z'
 10 '-y, -x, -z'
 11 '-y, -x, 1/2+z'
 12 '-y, x-y, 1/2-z'
 13 '-y, x-y, z'
 14 'x, x-y, -z'
 15 'x, x-y, 1/2+z'
 16 'x, y, 1/2-z'
 17 'x-y, -y, 1/2-z'
 18 'x-y, -y, z'
 19 'x-y, x, -z'
 20 'x-y, x, 1/2+z'
 21 'y, -x+y, -z'
 22 'y, -x+y, 1/2+z'
 23 'y, x, 1/2-z'
 24 'y, x, z'
loop_
 _atom_type_symbol
 Ho
 Sn
loop_
 _atom_site_label
 _atom_site_type_symbol
 _atom_site_symmetry_multiplicity
 _atom_site_Wyckoff_symbol
 _atom_site_fract_x
 _atom_site_fract_y
 _atom_site_fract_z
 _atom_site_occupancy
 Ho2 Ho 6 g 0.234 0 0.25 1
 Sn Sn 6 g 0.605 0 0.25 1
 Ho1 Ho 4 d 0.333333 0.666667 0 1


_exptl_crystal_colour                    ?
_exptl_crystal_density_meas              ?
_exptl_crystal_density_diffrn            8.96
_cell_measurement_temperature            ?
_cell_measurement_radiation              'X-rays, Cr Ka'
_cell_measurement_wavelength             2.28962
_pd_proc_wavelength                      2.28962
_cell_measurement_reflns_used            ?
_diffrn_ambient_temperature              ?
_diffrn_measurement_device               'Debye-Scherrer film'
_diffrn_measurement_device_type          ?
_diffrn_radiation_type                   'X-rays, Cr Ka'
_diffrn_radiation_wavelength             2.28962
_diffrn_reflns_number                    ?
_exptl_absorpt_coefficient_mu            ?
_exptl_absorpt_correction_type           ?
_computing_structure_solution            'starting values from the literature'
_refine_ls_number_parameters             ?
_refine_ls_number_reflns                 ?
_refine_ls_R_factor_gt                   0.08
_refine_ls_wR_factor_gt                  ?
_pd_proc_ls_proof_R_factor               ?
_pd_proc_ls_proof_wR_factor              ?
_refine_ls_R_I_factor                    ?

# Published diffraction lines

loop_
 _refln_index_h
 _refln_index_k
 _refln_index_l
 _refln_d_spacing
 _refln_intensity_meas
 2 0 0 38 0.5
 0 0 2 32.1 1.5
 1 0 2 29.6 2.5
 2 1 0 28.8 4
 2 1 1 26.3 10
 1 1 2 25.9 7
 3 0 0 25.4 3
 2 0 2 24.59 0.5
 3 1 0 21.17 0.4
 2 2 1 20.85 1.0
 3 1 1 20.11 0.6
 4 0 0 19.07 0.2
 2 2 2 18.19 2.0
 3 1 2 17.7 0.2
 2 1 3 17.24 3
 3 2 1 16.92 0.8
 4 1 0 16.69 1.2
 4 0 2 16.64 1.4
 0 0 4 16.12 1.2
 3 2 2 15.41 0.9
 5 0 0 15.3 0.5
 1 1 4 15.1 0.3
 2 0 4 14.83 0.4
 4 2 0 14.46 1.0
 3 3 1 14.36 1.3
 4 2 1 14.08 1.6
 5 0 2 13.83 3
 5 1 0 13.75 0.3
 3 0 4 13.63 2.5
 5 1 1 13.4 2.2
 4 2 2 13.2 0.2
 3 1 4 12.845 0.5
 4 3 0 12.59 0.2
 4 3 1 12.355 1.3
 5 2 0 12.265 0.6
 3 3 3 12.162 2.2
 5 2 1 12.05 1.9
 3 2 4 11.872 2.5
 2 1 5 11.793 5
 4 3 2 11.732 0.2
 6 1 0 11.682 4

# End of data set 451478


