##############################################################################
#                                                                            #
# Ho-In-O          # HoInO3                                        #  383790 #
#                                                                            #
##############################################################################
#                                                                            #
#                           Pearson's Crystal Data                           #
#      Crystal Structure Database for Inorganic Compounds (on DVD)           #
#                              Release 2017/18                               #
#                  Editors: Pierre Villars and Karin Cenzual                 #
#                                                                            #
#   Copyright (c) ASM International & Material Phases Data System (MPDS),    #
# Switzerland & National Institute for Materials Science (NIMS), Japan, 2017 #
#                   All rights reserved. Version 2017.08                     #
#                                                                            #
#   This copy of Pearson's Crystal Data is licensed to:                      #
#   University of Alberta, Chemistry Department, 1-5 Installations License         #
#                                                                            #
##############################################################################

data_383790
_audit_creation_date                     2017-12-01
_audit_creation_method
;
Pearson's Crystal Data browser
;
#_database_code_PCD                      383790

# Entry summary

_chemical_formula_structural             'Ho In O~3~'
_chemical_formula_sum                    'Ho In O3'
_chemical_name_mineral                   ?
_chemical_compound_source                ?
_chemical_name_structure_type            LuMnO~3~,hP30,185
_chemical_formula_weight                 327.7

# Bibliographic data

_publ_section_title
;
Stability and structure of noncentrosymmetric LnInO~3~ (Ln= Eu, Gd, Tb, Dy, Ho, Y)
;
_journal_coden_ASTM                      JINCAO
_journal_name_full                       'J. Inorg. Nucl. Chem.'
_journal_year                            1976
_journal_volume                          38
_journal_page_first                      1471
_journal_page_last                       1475
_journal_language                        English
loop_
 _publ_author_name
 _publ_author_address
'Pistorius C.W.F.T.'
;
Council for Scientific and Industrial Research (CSIR)
National Physical Research Laboratory
Pretoria
South Africa
;
'Kruger G.J.'
;
Council for Scientific and Industrial Research (CSIR)
National Physical Research Laboratory
Pretoria
South Africa
;

# Standardized crystallographic data

_cell_length_a                           6.271
_cell_length_b                           6.271
_cell_length_c                           12.263
_cell_angle_alpha                        90
_cell_angle_beta                         90
_cell_angle_gamma                        120
_cell_volume                             417.6
_cell_formula_units_Z                    6
_space_group_IT_number                   185
_space_group_name_H-M_alt                'P 63 c m'
loop_
 _space_group_symop_id
 _space_group_symop_operation_xyz
 1 'x, y, z'
 2 '-x+y, -x, z'
 3 '-x+y, y, 1/2+z'
 4 '-x, -x+y, z'
 5 '-x, -y, 1/2+z'
 6 '-y, -x, 1/2+z'
 7 '-y, x-y, z'
 8 'x, x-y, 1/2+z'
 9 'x-y, -y, z'
 10 'x-y, x, 1/2+z'
 11 'y, -x+y, 1/2+z'
 12 'y, x, z'

# Atomic positions taken from type-defining entry

loop_
 _atom_type_symbol
 O
 In
 Ho
loop_
 _atom_site_label
 _atom_site_type_symbol
 _atom_site_symmetry_multiplicity
 _atom_site_Wyckoff_symbol
 _atom_site_fract_x
 _atom_site_fract_y
 _atom_site_fract_z
 _atom_site_occupancy
 O1 O 6 c 0.307 0 0.10974 1
 In1 In 6 c 0.3355 0 0.27471 1
 O2 O 6 c 0.3614 0 0.43774 1
 Ho1 Ho 4 b 0.333333 0.666667 0.04356 1
 O3 O 4 b 0.333333 0.666667 0.25494 1
 Ho2 Ho 2 a 0 0 0.0 1
 O4 O 2 a 0 0 0.27054 1


_exptl_crystal_colour                    ?
_exptl_crystal_density_meas              ?
_exptl_crystal_density_diffrn            7.82
_cell_measurement_temperature            298
_cell_measurement_radiation              'X-rays, Co Ka'
_cell_measurement_reflns_used            ?
_diffrn_ambient_temperature              ?
_diffrn_measurement_device               'automatic diffractometer'
_diffrn_measurement_device_type          ?
_diffrn_radiation_type                   ?
_diffrn_reflns_number                    ?
_exptl_absorpt_coefficient_mu            ?
_exptl_absorpt_correction_type           ?
_computing_structure_solution            ?
_refine_ls_number_parameters             ?
_refine_ls_number_reflns                 ?
_refine_ls_R_factor_gt                   ?
_refine_ls_wR_factor_gt                  ?

# Published diffraction lines

loop_
 _refln_index_h
 _refln_index_k
 _refln_index_l
 _refln_d_spacing
 _refln_intensity_meas
 0 0 2 61.3 1
 1 1 0 31.35 7
 0 0 4 30.66 19
 1 1 1 30.38 64
 1 1 2 27.93 100
 1 1 3 24.87 14
 1 1 4 21.92 13
 0 2 4 20.32 3
 1 1 5 19.306 16
 0 1 6 19.121 4
 1 1 6 17.122 23
 0 2 6 16.324 3
 0 3 4 15.583 31
 2 2 1 15.548 24
 0 0 8 15.33 5
 1 1 7 15.292 8
 2 2 2 15.182 16
 1 0 8 14.751 3
 2 2 3 14.631 3
 2 1 6 14.483 4
 2 2 4 13.956 3
 1 1 8 13.767 1
 3 1 4 13.523 0.5
 2 2 5 13.207 4
 1 1 9 12.495 2
 2 2 6 12.44 6
 2 1 8 12.281 1
 3 1 6 12.127 1
 0 1 10 11.967 1
 4 1 0 11.852 2
 4 1 1 11.794 5
 4 1 2 11.634 12
 1 3 7 11.42 4
 4 1 3 11.381 4
 2 0 10 11.178 2
 4 1 4 11.055 3
 3 1 8 10.745 2
 4 1 5 10.671 4
 1 1 11 10.506 4
 3 3 0 10.451 5
 2 2 9 10.288 1
 2 4 0 10.254 10
 0 4 8 10.165 1
 3 3 4 9.893 9

# End of data set 383790


