##############################################################################
#                                                                            #
# Ho-Mn-O          # HoMnO3 rt                                     # 1520046 #
#                                                                            #
##############################################################################
#                                                                            #
#                           Pearson's Crystal Data                           #
#      Crystal Structure Database for Inorganic Compounds (on DVD)           #
#                              Release 2017/18                               #
#                  Editors: Pierre Villars and Karin Cenzual                 #
#                                                                            #
#   Copyright (c) ASM International & Material Phases Data System (MPDS),    #
# Switzerland & National Institute for Materials Science (NIMS), Japan, 2017 #
#                   All rights reserved. Version 2017.08                     #
#                                                                            #
#   This copy of Pearson's Crystal Data is licensed to:                      #
#   University of Alberta, Chemistry Department, 1-5 Installations License         #
#                                                                            #
##############################################################################

data_1520046
_audit_creation_date                     2017-12-05
_audit_creation_method
;
Pearson's Crystal Data browser
;
#_database_code_PCD                      1520046

# Entry summary

_chemical_formula_structural             'Ho Mn O~3~'
_chemical_formula_sum                    'Ho Mn O3'
_chemical_name_mineral                   ?
_chemical_compound_source                ?
_chemical_name_structure_type            LuMnO~3~,hP30,185
_chemical_formula_weight                 267.9

# Bibliographic data

_publ_section_title
;
Evolution of the Magnetic Structure of Hexagonal HoMnO~3~ from Neutron Powder Diffraction Data
;
_journal_coden_ASTM                      CMATEX
_journal_name_full                       'Chem. Mater.'
_journal_year                            2001
_journal_volume                          13
_journal_page_first                      1497
_journal_page_last                       1505
_journal_language                        English
loop_
 _publ_author_name
 _publ_author_address
'Munoz A.'
;
Leganes Carlos III University
Departamento de Fisica
Leganes
Spain
;
'Alonso J.A.'
;
Consejo Superior de Investigaciones Cientificas
Instituto de Ciencia de Materiales
Madrid
Spain
;
'Martinez Lope M.J.'
;
Consejo Superior de Investigaciones Cientificas
Instituto de Ciencia de Materiales
Madrid
Spain
;
'Casais M.T.'
;
Consejo Superior de Investigaciones Cientificas
Instituto de Ciencia de Materiales
Madrid
Spain
;
'Martinez J.L.'
;
Consejo Superior de Investigaciones Cientificas
Instituto de Ciencia de Materiales
Madrid
Spain
;
'Fernandez Diaz M.T.'
;
Grenoble Laue-Langevin Institute
Grenoble
France
;

# Standardized crystallographic data

_cell_length_a                           6.1413
_cell_length_b                           6.1413
_cell_length_c                           11.4122
_cell_angle_alpha                        90
_cell_angle_beta                         90
_cell_angle_gamma                        120
_cell_volume                             372.75
_cell_formula_units_Z                    6
_space_group_IT_number                   185
_space_group_name_H-M_alt                'P 63 c m'
loop_
 _space_group_symop_id
 _space_group_symop_operation_xyz
 1 'x, y, z'
 2 '-x+y, -x, z'
 3 '-x+y, y, 1/2+z'
 4 '-x, -x+y, z'
 5 '-x, -y, 1/2+z'
 6 '-y, -x, 1/2+z'
 7 '-y, x-y, z'
 8 'x, x-y, 1/2+z'
 9 'x-y, -y, z'
 10 'x-y, x, 1/2+z'
 11 'y, -x+y, 1/2+z'
 12 'y, x, z'
loop_
 _atom_type_symbol
 O
 Mn
 Ho
loop_
 _atom_site_label
 _atom_site_type_symbol
 _atom_site_symmetry_multiplicity
 _atom_site_Wyckoff_symbol
 _atom_site_fract_x
 _atom_site_fract_y
 _atom_site_fract_z
 _atom_site_occupancy
 O1 O 6 c 0.3054 0 0.1131 1
 Mn Mn 6 c 0.3224 0 0.2731 1
 O2 O 6 c 0.3567 0 0.4405 1
 Ho2 Ho 4 b 0.333333 0.666667 0.0425 1
 O4 O 4 b 0.333333 0.666667 0.2561 1
 Ho1 Ho 2 a 0 0 0.0 1
 O3 O 2 a 0 0 0.2968 1


_exptl_crystal_colour                    black
_exptl_crystal_density_meas              ?
_exptl_crystal_density_diffrn            7.16
_cell_measurement_temperature            ?
_cell_measurement_radiation              neutrons
_cell_measurement_wavelength             1.594
_pd_proc_wavelength                      1.594
_cell_measurement_reflns_used            ?
_diffrn_ambient_temperature              ?
_diffrn_measurement_device               'automatic diffractometer'
_diffrn_measurement_device_type
'France, Grenoble, Institut Laue-Langevin ILL, D2B'                           
_diffrn_radiation_type                   neutrons
_diffrn_radiation_wavelength             1.594
_diffrn_reflns_number                    ?
_exptl_absorpt_coefficient_mu            ?
_exptl_absorpt_correction_type           ?
_computing_structure_solution            'starting values from the literature'
_refine_ls_number_parameters             ?
_refine_ls_number_reflns                 ?
_refine_ls_R_factor_gt                   ?
_refine_ls_wR_factor_gt                  ?
_pd_proc_ls_proof_R_factor               0.037
_pd_proc_ls_proof_wR_factor              0.047
_refine_ls_R_I_factor                    0.044

# End of data set 1520046


