##############################################################################
#                                                                            #
# Al-Ho-Ni         # HoNiAl rt                                     # 1010440 #
#                                                                            #
##############################################################################
#                                                                            #
#                           Pearson's Crystal Data                           #
#      Crystal Structure Database for Inorganic Compounds (on DVD)           #
#                              Release 2017/18                               #
#                  Editors: Pierre Villars and Karin Cenzual                 #
#                                                                            #
#   Copyright (c) ASM International & Material Phases Data System (MPDS),    #
# Switzerland & National Institute for Materials Science (NIMS), Japan, 2017 #
#                   All rights reserved. Version 2017.08                     #
#                                                                            #
#   This copy of Pearson's Crystal Data is licensed to:                      #
#   University of Alberta, Chemistry Department, 1-5 Installations License         #
#                                                                            #
##############################################################################

data_1010440
_audit_creation_date                     2017-12-04
_audit_creation_method
;
Pearson's Crystal Data browser
;
#_database_code_PCD                      1010440

# Entry summary

_chemical_formula_structural             'Ho Ni Al'
_chemical_formula_sum                    'Al Ho Ni'
_chemical_name_mineral                   ?
_chemical_compound_source                ?
_chemical_name_structure_type            ZrNiAl,hP9,189
_chemical_formula_weight                 250.6

# Bibliographic data

_publ_section_title
'Ternary compounds with the Fe~2~P-type structure'                            
_journal_coden_ASTM                      TMSAAB
_journal_name_full                       'Trans. Metall. Soc. AIME'
_journal_year                            1968
_journal_volume                          242
_journal_page_first                      2075
_journal_page_last                       2080
_journal_language                        English
loop_
 _publ_author_name
 _publ_author_address
'Dwight A.E.'
;
Argonne National Laboratory
Argonne
U.S.A. Illinois
;
'Mueller M.H.'
;
Argonne National Laboratory
Argonne
U.S.A. Illinois
;
'Conner R.A. Jr.'
;
Argonne National Laboratory
Argonne
U.S.A. Illinois
;
'Downey J.W.'
;
Argonne National Laboratory
Argonne
U.S.A. Illinois
;
'Knott H.W.'
;
Argonne National Laboratory
Argonne
U.S.A. Illinois
;

# Standardized crystallographic data

_cell_length_a                           6.9893
_cell_length_b                           6.9893
_cell_length_c                           3.8204
_cell_angle_alpha                        90
_cell_angle_beta                         90
_cell_angle_gamma                        120
_cell_volume                             161.6
_cell_formula_units_Z                    3
_space_group_IT_number                   189
_space_group_name_H-M_alt                'P -6 2 m'
loop_
 _space_group_symop_id
 _space_group_symop_operation_xyz
 1 'x, y, z'
 2 '-x+y, -x, -z'
 3 '-x+y, -x, z'
 4 '-x, -x+y, -z'
 5 '-x, -x+y, z'
 6 '-y, x-y, -z'
 7 '-y, x-y, z'
 8 'x, y, -z'
 9 'x-y, -y, -z'
 10 'x-y, -y, z'
 11 'y, x, -z'
 12 'y, x, z'
loop_
 _atom_type_symbol
 Al
 Ho
 Ni
loop_
 _atom_site_label
 _atom_site_type_symbol
 _atom_site_symmetry_multiplicity
 _atom_site_Wyckoff_symbol
 _atom_site_fract_x
 _atom_site_fract_y
 _atom_site_fract_z
 _atom_site_occupancy
 Al Al 3 g 0.256 0 0.5 1
 Ho Ho 3 f 0.585 0 0 1
 Ni1 Ni 2 d 0.333333 0.666667 0.5 1
 Ni2 Ni 1 a 0 0 0 1


_exptl_crystal_colour                    ?
_exptl_crystal_density_meas              7.65
_exptl_crystal_density_diffrn            7.72
_cell_measurement_temperature            ?
_cell_measurement_radiation              'X-rays, Cr Ka'
_cell_measurement_wavelength             2.28962
_pd_proc_wavelength                      2.28962
_cell_measurement_reflns_used            ?
_diffrn_ambient_temperature              ?
_diffrn_measurement_device               'Debye-Scherrer film'
_diffrn_measurement_device_type          ?
_diffrn_radiation_type                   'X-rays, Cr Ka'
_diffrn_radiation_wavelength             2.28962
_diffrn_reflns_number                    ?
_exptl_absorpt_coefficient_mu            ?
_exptl_absorpt_correction_type           ?
_computing_structure_solution            'starting values from the literature'
_refine_ls_number_parameters             ?
_refine_ls_number_reflns                 ?
_refine_ls_R_factor_gt                   ?
_refine_ls_wR_factor_gt                  ?
_pd_proc_ls_proof_R_factor               ?
_pd_proc_ls_proof_wR_factor              ?
_refine_ls_R_I_factor                    ?

# Published diffraction lines

loop_
 _refln_index_h
 _refln_index_k
 _refln_index_l
 _refln_d_spacing
 _refln_intensity_meas
 1 0 0 60.2 4
 0 0 1 38 5
 1 1 0 34.8 6
 2 0 0 30.15 6
 1 1 1 25.75 8
 2 0 1 23.65 8
 2 1 0 22.85 7
 3 0 0 20.15 6
 2 1 1 19.6 6
 0 0 2 19.1 6
 1 0 2 18.2 1
 3 0 1 17.83 1
 2 2 0 17.48 3
 3 1 0 16.79 7
 2 0 2 16.12 5
 2 2 1 15.87 2
 3 1 1 15.38 7
 2 1 2 14.65 6
 3 2 0 13.88 6
 4 1 0 13.2 3
 3 2 1 13.04 7
 2 2 2 12.89 3
 0 0 3 12.72 1
 3 1 2 12.6 7
 4 1 1 12.48 5
 5 0 0 12.1 5
 1 1 3 11.97 6
 4 0 2 11.86 1
 2 0 3 11.74 7
 3 3 0 11.65 5
 5 0 1 11.54 8

# End of data set 1010440


