##############################################################################
#                                                                            #
# H-O-Rb-S         # HRb[SO4] rt                                   # 1100171 #
#                                                                            #
##############################################################################
#                                                                            #
#                           Pearson's Crystal Data                           #
#      Crystal Structure Database for Inorganic Compounds (on DVD)           #
#                              Release 2017/18                               #
#                  Editors: Pierre Villars and Karin Cenzual                 #
#                                                                            #
#   Copyright (c) ASM International & Material Phases Data System (MPDS),    #
# Switzerland & National Institute for Materials Science (NIMS), Japan, 2017 #
#                   All rights reserved. Version 2017.08                     #
#                                                                            #
#   This copy of Pearson's Crystal Data is licensed to:                      #
#   University of Alberta, Chemistry Department, 1-5 Installations License         #
#                                                                            #
##############################################################################

data_1100171
_audit_creation_date                     2017-12-04
_audit_creation_method
;
Pearson's Crystal Data browser
;
#_database_code_PCD                      1100171

# Entry summary

_chemical_formula_structural             'H Rb [S O~4~]'
_chemical_formula_sum                    'O4 Rb S'
_chemical_name_mineral                   ?
_chemical_compound_source                ?
_chemical_name_structure_type            H[NH~4~][SO~4~],mP48,14
_chemical_formula_weight                 182.5

# Bibliographic data

_publ_section_title
;
Alkali metal ordering and hydrogen bonding in the system KHSO~4~-RbHSO~4~: The crystal structures of K~x~Rb~1-x~HSO~4~ (0.3 < x < 0.55) and RbHSO~4~
;
_journal_coden_ASTM                      ACBCAR
_journal_name_full                       'Acta Crystallogr. B'
_journal_year                            1973
_journal_volume                          29
_journal_page_first                      1076
_journal_page_last                       1083
_journal_language                        English
loop_
 _publ_author_name
 _publ_author_address
'Mumme W.G.'
;
Commonwealth Scientific and Industrial Research Organization (CSIRO)
Division of Mineral Chemistry
Port Melbourne
Australia
;

# Standardized crystallographic data

_cell_length_a                           14.4429
_cell_length_b                           4.61
_cell_length_c                           14.76
_cell_angle_alpha                        90
_cell_angle_beta                         121.418
_cell_angle_gamma                        90
_cell_volume                             838.66
_cell_formula_units_Z                    8
_space_group_IT_number                   14
_space_group_name_H-M_alt                'P 1 21/c 1'
loop_
 _space_group_symop_id
 _space_group_symop_operation_xyz
 1 'x, y, z'
 2 '-x, -y, -z'
 3 '-x, 1/2+y, 1/2-z'
 4 'x, 1/2-y, 1/2+z'
loop_
 _atom_type_symbol
 O
 S
 Rb
loop_
 _atom_site_label
 _atom_site_type_symbol
 _atom_site_symmetry_multiplicity
 _atom_site_Wyckoff_symbol
 _atom_site_fract_x
 _atom_site_fract_y
 _atom_site_fract_z
 _atom_site_occupancy
 O2 O 4 e 0.03 0.1136 0.1761 1
 O4 O 4 e 0.0939 0.4772 0.109 1
 S2 S 4 e 0.1247 0.2137 0.1739 1
 Rb2 Rb 4 e 0.1236 0.1381 0.4154 1
 O3 O 4 e 0.1407 0.0196 0.0984 1
 O1 O 4 e 0.2227 0.1957 0.2754 1
 O8 O 4 e 0.3344 0.5245 0.1194 1
 O5 O 4 e 0.5325 0.1968 0.4312 1
 O7 O 4 e 0.5397 0.5024 0.2809 1
 Rb1 Rb 4 e 0.6217 0.2019 0.1608 1
 S1 S 4 e 0.6281 0.2642 0.4212 1
 O6 O 4 e 0.7141 0.1148 0.019 1


_exptl_crystal_colour                    ?
_exptl_crystal_density_meas              ?
_exptl_crystal_density_diffrn            2.89
_cell_measurement_temperature            ?
_cell_measurement_radiation              'X-rays, Cu Ka'
_cell_measurement_wavelength             1.5418
_pd_proc_wavelength                      1.5418
_cell_measurement_reflns_used            ?
_diffrn_ambient_temperature              ?
_diffrn_measurement_device               'Weissenberg photographs'
_diffrn_measurement_device_type          ?
_diffrn_radiation_type                   'X-rays, Cu K'
_diffrn_reflns_number                    ?
_exptl_absorpt_coefficient_mu            ?
_exptl_absorpt_correction_type           ?
_computing_structure_solution            'Patterson and Fourier synthesis'
_refine_ls_number_parameters             ?
_refine_ls_number_reflns                 800
_refine_ls_R_factor_gt                   0.106
_refine_ls_wR_factor_gt                  ?

# Published diffraction lines

loop_
 _refln_index_h
 _refln_index_k
 _refln_index_l
 _refln_d_spacing
 _refln_intensity_meas
 3 0 -2 0.2751 3
 0 1 1 0.3164 3
 1 1 -2 0.3943 6
 2 0 -4 0.4364 9
 1 1 -3 0.5332 5
 2 1 1 0.5439 5
 3 1 -2 0.5514 5
 0 0 4 0.5898 8
 0 1 -3 0.5954 8
 3 1 -3 0.6123 4
 3 1 0 0.6279 8
 2 1 -4 0.7131 5
 0 1 -4 0.8701 9
 2 1 -5 0.9789 7
 3 1 2 1.0038 7
 2 0 -6 1.0169 7
 1 1 4 1.0584 7
 4 1 1 1.0989 5
 0 2 0 1.1174 5
 1 0 -6 1.1257 5
 0 2 1 1.1534 7

# End of data set 1100171


