##############################################################################
#                                                                            #
# H-O-Rb-Se        # HRb[SeO4] ht1                                 #  558246 #
#                                                                            #
##############################################################################
#                                                                            #
#                           Pearson's Crystal Data                           #
#      Crystal Structure Database for Inorganic Compounds (on DVD)           #
#                              Release 2017/18                               #
#                  Editors: Pierre Villars and Karin Cenzual                 #
#                                                                            #
#   Copyright (c) ASM International & Material Phases Data System (MPDS),    #
# Switzerland & National Institute for Materials Science (NIMS), Japan, 2017 #
#                   All rights reserved. Version 2017.08                     #
#                                                                            #
#   This copy of Pearson's Crystal Data is licensed to:                      #
#   University of Alberta, Chemistry Department, 1-5 Installations License         #
#                                                                            #
##############################################################################

data_558246
_audit_creation_date                     2017-12-04
_audit_creation_method
;
Pearson's Crystal Data browser
;
#_database_code_PCD                      558246

# Entry summary

_chemical_formula_structural             'H Rb [Se O~4~]'
_chemical_formula_sum                    'H O4 Rb Se'
_chemical_name_mineral                   ?
_chemical_compound_source                ?
_chemical_name_structure_type            H[NH~4~][SeO~4~],mS36,5
_chemical_formula_weight                 229.4

# Bibliographic data

_publ_section_title
'Successive Phase Transitions in Ferroelectric RbHSeO~4~'                     
_journal_coden_ASTM                      JUPSAU
_journal_name_full                       'J. Phys. Soc. Jpn.'
_journal_year                            1979
_journal_volume                          47
_journal_page_first                      1741
_journal_page_last                       1742
_journal_language                        English
loop_
 _publ_author_name
 _publ_author_address
'Suzuki S.'
;
Tokyo University of Science
Department of Applied Physics
Tokyo / Tokyo
Japan
;
'Osaka T.'
;
Tokyo University of Science
Department of Applied Physics
Tokyo / Tokyo
Japan
;
'Makita Y.'
;
Tokyo University of Science
Department of Applied Physics
Tokyo / Tokyo
Japan
;

# Standardized crystallographic data

_cell_length_a                           19.9543
_cell_length_b                           7.599
_cell_length_c                           4.626
_cell_angle_alpha                        90
_cell_angle_beta                         102.744
_cell_angle_gamma                        90
_cell_volume                             684.2
_cell_formula_units_Z                    6
_space_group_IT_number                   5
_space_group_name_H-M_alt                'C 1 2 1'
loop_
 _space_group_symop_id
 _space_group_symop_operation_xyz
 1 'x, y, z'
 2 '-x, y, -z'
 3 '1/2+x, 1/2+y, z'
 4 '1/2-x, 1/2+y, -z'

# Atomic positions taken from type-defining entry

loop_
 _atom_type_symbol
 O
 Se
 Rb
loop_
 _atom_site_label
 _atom_site_type_symbol
 _atom_site_symmetry_multiplicity
 _atom_site_Wyckoff_symbol
 _atom_site_fract_x
 _atom_site_fract_y
 _atom_site_fract_z
 _atom_site_occupancy
 O1 O 4 c 0.0301 0.1366 0.284 1
 Se1 Se 4 c 0.1676 0.4216 0.6991 1
 O2 O 4 c 0.1939 0.287 0.468 1
 O3 O 4 c 0.2688 0.026 0.095 1
 Rb1 Rb 4 c 0.335 0.412 0.4272 1
 O4 O 4 c 0.3686 0.784 0.082 1
 O5 O 4 c 0.3953 0.047 0.467 1
 O6 O 4 c 0.4365 0.3826 0.059 1
 Se2 Se 2 a 0 0.0 0 1
 Rb2 Rb 2 a 0 0.519 0 1


_exptl_crystal_colour                    ?
_exptl_crystal_density_meas              ?
_exptl_crystal_density_diffrn            3.34
_cell_measurement_temperature            423
_cell_measurement_radiation              X-rays
_cell_measurement_reflns_used            ?
_diffrn_ambient_temperature              ?
_diffrn_measurement_device               'automatic diffractometer'
_diffrn_measurement_device_type          ?
_diffrn_radiation_type                   ?
_diffrn_reflns_number                    ?
_exptl_absorpt_coefficient_mu            ?
_exptl_absorpt_correction_type           ?
_computing_structure_solution            ?
_refine_ls_number_parameters             ?
_refine_ls_number_reflns                 ?
_refine_ls_R_factor_gt                   ?
_refine_ls_wR_factor_gt                  ?

# End of data set 558246


