##############################################################################
#                                                                            #
# H-O-P-Sn         # HSn[PO4]                                      # 1100028 #
#                                                                            #
##############################################################################
#                                                                            #
#                           Pearson's Crystal Data                           #
#      Crystal Structure Database for Inorganic Compounds (on DVD)           #
#                              Release 2017/18                               #
#                  Editors: Pierre Villars and Karin Cenzual                 #
#                                                                            #
#   Copyright (c) ASM International & Material Phases Data System (MPDS),    #
# Switzerland & National Institute for Materials Science (NIMS), Japan, 2017 #
#                   All rights reserved. Version 2017.08                     #
#                                                                            #
#   This copy of Pearson's Crystal Data is licensed to:                      #
#   University of Alberta, Chemistry Department, 1-5 Installations License         #
#                                                                            #
##############################################################################

data_1100028
_audit_creation_date                     2017-12-04
_audit_creation_method
;
Pearson's Crystal Data browser
;
#_database_code_PCD                      1100028

# Entry summary

_chemical_formula_structural             'H Sn [P O~4~]'
_chemical_formula_sum                    'H O4 P Sn'
_chemical_name_mineral                   ?
_chemical_compound_source                ?
_chemical_name_structure_type            HSn[PO~4~],mP24,14
_chemical_formula_weight                 214.7

# Bibliographic data

_publ_section_title                      'The Crystal Structure of SnHPO~4~'
_journal_coden_ASTM                      ACBCAR
_journal_name_full                       'Acta Crystallogr. B'
_journal_year                            1971
_journal_volume                          27
_journal_page_first                      1092
_journal_page_last                       1094
_journal_language                        English
loop_
 _publ_author_name
 _publ_author_address
'Berndt A.F.'
;
Missouri Saint Louis Washington University
Department of Chemistry
Saint Louis
U.S.A. Missouri
;
'Lamberg R.'
;
Missouri Saint Louis Washington University
Department of Chemistry
Saint Louis
U.S.A. Missouri
;

# Standardized crystallographic data

_cell_length_a                           4.576
_cell_length_b                           13.548
_cell_length_c                           5.785
_cell_angle_alpha                        90
_cell_angle_beta                         98.7
_cell_angle_gamma                        90
_cell_volume                             354.52
_cell_formula_units_Z                    4
_space_group_IT_number                   14
_space_group_name_H-M_alt                'P 1 21/c 1'
loop_
 _space_group_symop_id
 _space_group_symop_operation_xyz
 1 'x, y, z'
 2 '-x, -y, -z'
 3 '-x, 1/2+y, 1/2-z'
 4 'x, 1/2-y, 1/2+z'
loop_
 _atom_type_symbol
 OH
 P
 O
 Sn
loop_
 _atom_site_label
 _atom_site_type_symbol
 _atom_site_symmetry_multiplicity
 _atom_site_Wyckoff_symbol
 _atom_site_fract_x
 _atom_site_fract_y
 _atom_site_fract_z
 _atom_site_occupancy
 O2 OH 4 e 0.028 0.577 0.252 1
 P P 4 e 0.071 0.15 0.065 1
 O3 O 4 e 0.195 0.409 0.392 1
 O1 O 4 e 0.194 0.788 0.047 1
 O4 O 4 e 0.295 0.221 0.189 1
 Sn Sn 4 e 0.5517 0.3429 0.11 1


_exptl_crystal_colour                    ?
_exptl_crystal_density_meas              ?
_exptl_crystal_density_diffrn            4.02
_cell_measurement_temperature            ?
_cell_measurement_radiation              'X-rays, Cu Ka'
_cell_measurement_wavelength             1.54178
_cell_measurement_reflns_used            ?
_diffrn_ambient_temperature              ?
_diffrn_measurement_device               'Weissenberg photographs'
_diffrn_measurement_device_type          ?
_diffrn_radiation_type                   'X-rays, Cu Ka'
_diffrn_radiation_wavelength             1.54178
_diffrn_reflns_number                    ?
_exptl_absorpt_coefficient_mu            ?
_exptl_absorpt_correction_type           ?
_computing_structure_solution            'Patterson synthesis'
_refine_ls_number_parameters             ?
_refine_ls_number_reflns                 ?
_refine_ls_R_factor_gt                   0.105
_refine_ls_wR_factor_gt                  ?

# End of data set 1100028


