##############################################################################
#                                                                            #
# In-O-Si          # In2[Si2O7] ht-hp                              #  307989 #
#                                                                            #
##############################################################################
#                                                                            #
#                           Pearson's Crystal Data                           #
#      Crystal Structure Database for Inorganic Compounds (on DVD)           #
#                              Release 2017/18                               #
#                  Editors: Pierre Villars and Karin Cenzual                 #
#                                                                            #
#   Copyright (c) ASM International & Material Phases Data System (MPDS),    #
# Switzerland & National Institute for Materials Science (NIMS), Japan, 2017 #
#                   All rights reserved. Version 2017.08                     #
#                                                                            #
#   This copy of Pearson's Crystal Data is licensed to:                      #
#   University of Alberta, Chemistry Department, 1-5 Installations License         #
#                                                                            #
##############################################################################

data_307989
_audit_creation_date                     2017-12-01
_audit_creation_method
;
Pearson's Crystal Data browser
;
#_database_code_PCD                      307989

# Entry summary

_chemical_formula_structural             'In~2~ [Si~2~ O~7~]'
_chemical_formula_sum                    'In2 O7 Si2'
_chemical_name_mineral                   ?
_chemical_compound_source                ?
_chemical_name_structure_type            Y~2~[Si~2~O~7~],mP22,14
_chemical_formula_weight                 397.8

# Bibliographic data

_publ_section_title
;
Polymorphisme des disilicates d'indium et de scandium sous haute pression et a haute temp\'erature
;
_journal_coden_ASTM                      CHDCAQ
_journal_name_full                       'C. R. Seances Acad. Sci., Ser. C'
_journal_year                            1979
_journal_volume                          288
_journal_page_first                      421
_journal_page_last                       424
_journal_language                        French
loop_
 _publ_author_name
 _publ_author_address
'Chateau C.'
;
Centre National de la Recherche Scientifique (CNRS)
Meudon-Bellevue
France
;
'Loriers J.'
;
Centre National de la Recherche Scientifique (CNRS)
Meudon-Bellevue
France
;

# Standardized crystallographic data

_cell_length_a                           4.695
_cell_length_b                           10.3
_cell_length_c                           5.39
_cell_angle_alpha                        90
_cell_angle_beta                         97.1
_cell_angle_gamma                        90
_cell_volume                             258.7
_cell_formula_units_Z                    2
_space_group_IT_number                   14
_space_group_name_H-M_alt                'P 1 21/c 1'
loop_
 _space_group_symop_id
 _space_group_symop_operation_xyz
 1 'x, y, z'
 2 '-x, -y, -z'
 3 '-x, 1/2+y, 1/2-z'
 4 'x, 1/2-y, 1/2+z'

# Atomic positions taken from type-defining entry

loop_
 _atom_type_symbol
 O
 Si
 In
loop_
 _atom_site_label
 _atom_site_type_symbol
 _atom_site_symmetry_multiplicity
 _atom_site_Wyckoff_symbol
 _atom_site_fract_x
 _atom_site_fract_y
 _atom_site_fract_z
 _atom_site_occupancy
 O1 O 4 e 0.1184 0.2016 0.2522 1
 Si1 Si 4 e 0.1384 0.6099 0.3539 1
 O2 O 4 e 0.2948 0.5514 0.1347 1
 In1 In 4 e 0.3894 0.3492 0.0928 1
 O3 O 4 e 0.6235 0.3191 0.4583 1
 O4 O 2 a 0 0 0 1


_exptl_crystal_colour                    ?
_exptl_crystal_density_meas              ?
_exptl_crystal_density_diffrn            5.11
_cell_measurement_temperature            ?
_cell_measurement_radiation              X-rays
_cell_measurement_reflns_used            ?
_diffrn_ambient_temperature              ?
_diffrn_measurement_device               film
_diffrn_measurement_device_type          ?
_diffrn_radiation_type                   ?
_diffrn_reflns_number                    ?
_exptl_absorpt_coefficient_mu            ?
_exptl_absorpt_correction_type           ?
_computing_structure_solution            ?
_refine_ls_number_parameters             ?
_refine_ls_number_reflns                 ?
_refine_ls_R_factor_gt                   ?
_refine_ls_wR_factor_gt                  ?

# End of data set 307989


