##############################################################################
#                                                                            #
# H-In-O-P         # In2[PHO3]3[H2O]                               # 1521131 #
#                                                                            #
##############################################################################
#                                                                            #
#                           Pearson's Crystal Data                           #
#      Crystal Structure Database for Inorganic Compounds (on DVD)           #
#                              Release 2017/18                               #
#                  Editors: Pierre Villars and Karin Cenzual                 #
#                                                                            #
#   Copyright (c) ASM International & Material Phases Data System (MPDS),    #
# Switzerland & National Institute for Materials Science (NIMS), Japan, 2017 #
#                   All rights reserved. Version 2017.08                     #
#                                                                            #
#   This copy of Pearson's Crystal Data is licensed to:                      #
#   University of Alberta, Chemistry Department, 1-5 Installations License         #
#                                                                            #
##############################################################################

data_1521131
_audit_creation_date                     2017-12-05
_audit_creation_method
;
Pearson's Crystal Data browser
;
#_database_code_PCD                      1521131

# Entry summary

_chemical_formula_structural             'In~2~ [P H O~3~]~3~ [H~2~ O]'
_chemical_formula_sum                    'H5 In2 O10 P3'
_chemical_name_mineral                   ?
_chemical_compound_source                ?
_chemical_name_structure_type            In~2~[PHO~3~]~3~[H~2~O],mP30,4
_chemical_formula_weight                 487.6

# Bibliographic data

_publ_section_title
;
Hydrothermal synthesis and structural characterization of the first indium phosphite In~2~(HPO~3~)~3~(H~2~O)
;
_journal_coden_ASTM                      ICCOFP
_journal_name_full                       'Inorg. Chem. Commun.'
_journal_year                            2005
_journal_volume                          8
_journal_page_first                      166
_journal_page_last                       169
_journal_language                        English
loop_
 _publ_author_name
 _publ_author_address
'Yi Z.'
;
Changchun Jilin University
State Key Laboratory of Inorganic Synthesis and Preparative Chemistry
Changchun / Jilin
China
;
'Chen C.'
;
Changchun Jilin University
State Key Laboratory of Inorganic Synthesis and Preparative Chemistry
Changchun / Jilin
China
;
'Li S.'
;
Changchun Jilin University
State Key Laboratory of Inorganic Synthesis and Preparative Chemistry
Changchun / Jilin
China
;
'Li G.'
;
Changchun Jilin University
State Key Laboratory of Inorganic Synthesis and Preparative Chemistry
Changchun / Jilin
China
;
'Meng H.X.'
;
Changchun Jilin University
State Key Laboratory of Inorganic Synthesis and Preparative Chemistry
Changchun / Jilin
China
;
'Cui Y.'
;
Changchun Jilin University
State Key Laboratory of Inorganic Synthesis and Preparative Chemistry
Changchun / Jilin
China
;
'Yang Y.'
;
Changchun Jilin University
State Key Laboratory of Inorganic Synthesis and Preparative Chemistry
Changchun / Jilin
China
;
'Pang W.Q.'
;
Changchun Jilin University
State Key Laboratory of Inorganic Synthesis and Preparative Chemistry
Changchun / Jilin
China
;

# Standardized crystallographic data

_cell_length_a                           6.6255
_cell_length_b                           10.203
_cell_length_c                           7.5208
_cell_angle_alpha                        90
_cell_angle_beta                         109.48
_cell_angle_gamma                        90
_cell_volume                             479.3
_cell_formula_units_Z                    2
_space_group_IT_number                   4
_space_group_name_H-M_alt                'P 1 21 1'
loop_
 _space_group_symop_id
 _space_group_symop_operation_xyz
 1 'x, y, z'
 2 '-x, 1/2+y, -z'
loop_
 _atom_type_symbol
 O
 In
 P
 OH2
 H
loop_
 _atom_site_label
 _atom_site_type_symbol
 _atom_site_symmetry_multiplicity
 _atom_site_Wyckoff_symbol
 _atom_site_fract_x
 _atom_site_fract_y
 _atom_site_fract_z
 _atom_site_occupancy
 O2 O 2 a 0.0095 0.1653 0.3046 1
 O10 O 2 a 0.0097 0.3743 0.6785 1
 In2 In 2 a 0.07246 0.01798 0.5337 1
 O5 O 2 a 0.1773 0.2985 0.0064 1
 P3 P 2 a 0.19646 0.29489 0.8092 1
 O6 OH2 2 a 0.198 0.0 0.0819 1
 O9 O 2 a 0.2109 0.1556 0.7432 1
 O7 O 2 a 0.2191 0.5496 0.4243 1
 In1 In 2 a 0.31741 0.17644 0.24281 1
 O1 O 2 a 0.379 0.0403 0.4766 1
 P1 P 2 a 0.40491 0.48022 0.39355 1
 O3 O 2 a 0.4062 0.3353 0.4249 1
 O4 O 2 a 0.607 0.1546 0.1933 1
 O8 O 2 a 0.7977 0.3768 0.2466 1
 P2 P 2 a 0.79823 0.23399 0.18926 1
 H3 H 2 a 0.394 0.3381 0.813 1
 H1 H 2 a 0.396 0.5031 0.229 1
 H2 H 2 a 0.797 0.2331 0.009 1


_exptl_crystal_colour                    colorless
_exptl_crystal_density_meas              ?
_exptl_crystal_density_diffrn            3.38
_cell_measurement_temperature            ?
_cell_measurement_radiation              'X-rays, Mo Ka'
_cell_measurement_wavelength             0.71073
_cell_measurement_reflns_used            ?
_diffrn_ambient_temperature              ?
_diffrn_measurement_device               'automatic diffractometer'
_diffrn_measurement_device_type          'Rigaku R-AXIS RAPID'
_diffrn_radiation_type                   'X-rays, Mo Ka'
_diffrn_radiation_wavelength             0.71073
_diffrn_reflns_number                    4613
_diffrn_reflns_theta_min                 3.26
_diffrn_reflns_theta_max                 27.4
_exptl_absorpt_coefficient_mu            5.349
_exptl_absorpt_correction_type           ?
_computing_structure_solution            'direct methods, Fourier synthesis'
_refine_ls_number_parameters             ?
_refine_ls_number_reflns                 2127
_refine_ls_R_factor_gt                   0.0163
_refine_ls_wR_factor_gt                  0.0356

# End of data set 1521131


