##############################################################################
#                                                                            #
# Bi-In            # In2Bi                                         # 1503795 #
#                                                                            #
##############################################################################
#                                                                            #
#                           Pearson's Crystal Data                           #
#      Crystal Structure Database for Inorganic Compounds (on DVD)           #
#                              Release 2017/18                               #
#                  Editors: Pierre Villars and Karin Cenzual                 #
#                                                                            #
#   Copyright (c) ASM International & Material Phases Data System (MPDS),    #
# Switzerland & National Institute for Materials Science (NIMS), Japan, 2017 #
#                   All rights reserved. Version 2017.08                     #
#                                                                            #
#   This copy of Pearson's Crystal Data is licensed to:                      #
#   University of Alberta, Chemistry Department, 1-5 Installations License         #
#                                                                            #
##############################################################################

data_1503795
_audit_creation_date                     2017-12-05
_audit_creation_method
;
Pearson's Crystal Data browser
;
#_database_code_PCD                      1503795

# Entry summary

_chemical_formula_structural             'In~2~ Bi'
_chemical_formula_sum                    'Bi In2'
_chemical_name_mineral                   ?
_chemical_compound_source                ?
_chemical_name_structure_type            Co~1.75~Ge,hP6,194
_chemical_formula_weight                 438.6
_chemical_melting_point                  364

# Bibliographic data

_publ_section_title
;
New data on the structure of BiIn~2~ and the possible structure of TlBi~1.27-1-59~, NaHg~2~, UHg~2~, UZr~2~ and TiU~2~
;
_journal_coden_ASTM                      SPHCA6
_journal_name_full                       'Sov. Phys. Crystallogr.'
_journal_year                            1958
_journal_volume                          3
_journal_page_first                      3
_journal_page_last                       7
_journal_language                        English
loop_
 _publ_author_name
 _publ_author_address
'Makarov E.S.'
;
Russian Academy of Sciences
Vernadskii V.I. Institute of Geochemistry and Analytical Chemistry
Moscow
Russia
;

# Standardized crystallographic data

_cell_length_a                           5.496
_cell_length_b                           5.496
_cell_length_c                           6.579
_cell_angle_alpha                        90
_cell_angle_beta                         90
_cell_angle_gamma                        120
_cell_volume                             172.1
_cell_formula_units_Z                    2
_space_group_IT_number                   194
_space_group_name_H-M_alt                'P 63/m m c'
loop_
 _space_group_symop_id
 _space_group_symop_operation_xyz
 1 'x, y, z'
 2 '-x+y, -x, 1/2-z'
 3 '-x+y, -x, z'
 4 '-x+y, y, 1/2-z'
 5 '-x+y, y, z'
 6 '-x, -x+y, -z'
 7 '-x, -x+y, 1/2+z'
 8 '-x, -y, -z'
 9 '-x, -y, 1/2+z'
 10 '-y, -x, 1/2-z'
 11 '-y, -x, z'
 12 '-y, x-y, 1/2-z'
 13 '-y, x-y, z'
 14 'x, x-y, 1/2-z'
 15 'x, x-y, z'
 16 'x, y, 1/2-z'
 17 'x-y, -y, -z'
 18 'x-y, -y, 1/2+z'
 19 'x-y, x, -z'
 20 'x-y, x, 1/2+z'
 21 'y, -x+y, -z'
 22 'y, -x+y, 1/2+z'
 23 'y, x, -z'
 24 'y, x, 1/2+z'
loop_
 _atom_type_symbol
 In
 Bi
loop_
 _atom_site_label
 _atom_site_type_symbol
 _atom_site_symmetry_multiplicity
 _atom_site_Wyckoff_symbol
 _atom_site_fract_x
 _atom_site_fract_y
 _atom_site_fract_z
 _atom_site_occupancy
 In2 In 2 d 0.333333 0.666667 0.75 1
 Bi Bi 2 c 0.333333 0.666667 0.25 1
 In1 In 2 a 0 0 0 1


_exptl_crystal_colour                    ?
_exptl_crystal_density_meas              ?
_exptl_crystal_density_diffrn            8.46
_cell_measurement_temperature            ?
_cell_measurement_radiation              'X-rays, Cu Ka1'
_cell_measurement_wavelength             1.5405
_pd_proc_wavelength                      1.5405
_cell_measurement_reflns_used            2
_diffrn_ambient_temperature              ?
_diffrn_measurement_device               film
_diffrn_measurement_device_type          ?
_diffrn_radiation_type                   'X-rays, Cu Ka'
_diffrn_reflns_number                    ?
_exptl_absorpt_coefficient_mu            ?
_exptl_absorpt_correction_type           ?
_computing_structure_solution            'starting values from the literature'
_refine_ls_number_parameters             ?
_refine_ls_number_reflns                 ?
_refine_ls_R_factor_gt                   ?
_refine_ls_wR_factor_gt                  ?
_pd_proc_ls_proof_R_factor               ?
_pd_proc_ls_proof_wR_factor              ?
_refine_ls_R_I_factor                    ?

# Published diffraction lines

loop_
 _refln_index_h
 _refln_index_k
 _refln_index_l
 _refln_d_spacing
 _refln_intensity_meas
 1 0 1 0.4 9.3
 0 0 2 0.55 6.2
 1 1 0 0.79 100.0
 1 0 2 0.82 80.0
 2 0 1 1.2 3.1
 1 1 2 1.34 25.0
 1 0 3 1.5 3.1
 2 0 2 1.6 50.0
 1 2 1 1.99 3.1
 0 0 4 2.2 9.3
 2 0 3 2.29 3.1
 3 0 0 2.38 15.5
 2 1 2 2.4 50.0
 3 0 2 2.93 6.2
 1 1 4 2.99 37.3
 2 2 0 3.16 12.4
 2 2 2 3.71 3.1
 3 1 2 3.96 18.5
 3 0 4 4.57 12.4
 4 0 2 4.75 6.2
 1 0 6 5.22 3.1
 2 2 4 5.37 9.3
 4 1 0 5.55 18.5
 2 0 6 6 3.1
 1 4 2 6.09 3.1
 2 1 6 6.79 4.6
 3 3 0 7.12 4.6
 4 1 4 7.71 12.4
 4 2 2 7.89 9.3
 3 1 6 8.32 6.2
 5 1 2 8.67 9.3
 4 0 6 9.12 3.1
 3 3 4 9.26 9.3
 6 0 0 9.43 6.2
 1 1 8 9.56 12.4
 2 3 6 9.91 12.4

# End of data set 1503795


