##############################################################################
#                                                                            #
# In-S-Sn          # In2Sn3S7                                      #  462636 #
#                                                                            #
##############################################################################
#                                                                            #
#                           Pearson's Crystal Data                           #
#      Crystal Structure Database for Inorganic Compounds (on DVD)           #
#                              Release 2017/18                               #
#                  Editors: Pierre Villars and Karin Cenzual                 #
#                                                                            #
#   Copyright (c) ASM International & Material Phases Data System (MPDS),    #
# Switzerland & National Institute for Materials Science (NIMS), Japan, 2017 #
#                   All rights reserved. Version 2017.08                     #
#                                                                            #
#   This copy of Pearson's Crystal Data is licensed to:                      #
#   University of Alberta, Chemistry Department, 1-5 Installations License         #
#                                                                            #
##############################################################################

data_462636
_audit_creation_date                     2017-12-01
_audit_creation_method
;
Pearson's Crystal Data browser
;
#_database_code_PCD                      462636

# Entry summary

_chemical_formula_structural             'In~2~ Sn~3~ S~7~'
_chemical_formula_sum                    'In2 S7 Sn3'
_chemical_name_mineral                   ?
_chemical_compound_source                ?
_chemical_name_structure_type            In~2~Sn~3~S~7~,mP24,11
_chemical_formula_weight                 810.1

# Bibliographic data

_publ_section_title
;
Etudes sur le syst\`eme ternaire Sn-ln-S. Analyses thermique diff\'erentielle et radiocristallographique du pseudobinaire SnS-In~2~S~3~. Croissance en phase vapeur et caract\'erisation de compos\'es a valences mixtes de l'\'etain
;
_journal_coden_ASTM                      JSSCBI
_journal_name_full                       'J. Solid State Chem.'
_journal_year                            1986
_journal_volume                          65
_journal_page_first                      251
_journal_page_last                       259
_journal_language                        French
loop_
 _publ_author_name
 _publ_author_address
'Adenis C.'
;
Montpellier Languedoc University of Science and Technology
Laboratoire de Physico-Chimie des Mat\'eriaux
Montpellier
France
;
'Olivier Fourcade J.'
;
Montpellier Languedoc University of Science and Technology
Laboratoire de Physico-Chimie des Mat\'eriaux
Montpellier
France
;
'Jumas J.C.'
;
Montpellier Languedoc University of Science and Technology
Laboratoire de Physico-Chimie des Mat\'eriaux
Montpellier
France
;
'Philippot E.'
;
Montpellier Languedoc University of Science and Technology
Laboratoire de Physico-Chimie des Mat\'eriaux
Montpellier
France
;

# Standardized crystallographic data

_cell_length_a                           11.643
_cell_length_b                           3.784
_cell_length_c                           12.628
_cell_angle_alpha                        90
_cell_angle_beta                         105.81
_cell_angle_gamma                        90
_cell_volume                             535.3
_cell_formula_units_Z                    2
_space_group_IT_number                   11
_space_group_name_H-M_alt                'P 1 21/m 1'
loop_
 _space_group_symop_id
 _space_group_symop_operation_xyz
 1 'x, y, z'
 2 '-x, -y, -z'
 3 '-x, 1/2+y, -z'
 4 'x, 1/2-y, z'

# Atomic positions taken from type-defining entry

loop_
 _atom_type_symbol
 In
 S
 Sn
loop_
 _atom_site_label
 _atom_site_type_symbol
 _atom_site_symmetry_multiplicity
 _atom_site_Wyckoff_symbol
 _atom_site_fract_x
 _atom_site_fract_y
 _atom_site_fract_z
 _atom_site_occupancy
 In1 In 2 e 0.0114 0.25 0.1251 1
 S1 S 2 e 0.1103 0.25 0.8183 1
 S2 S 2 e 0.1512 0.25 0.3269 1
 Sn1 Sn 2 e 0.3501 0.25 0.7093 1
 Sn2 Sn 2 e 0.3537 0.25 0.0304 1
 Sn3 Sn 2 e 0.3895 0.25 0.3848 1
 S3 S 2 e 0.5906 0.25 0.7486 1
 S4 S 2 e 0.5976 0.25 0.1114 1
 S5 S 2 e 0.6185 0.25 0.4698 1
 S6 S 2 e 0.8652 0.25 0.9325 1
 S7 S 2 e 0.8808 0.25 0.4139 1
 In2 In 2 e 0.9783 0.25 0.6177 1


_exptl_crystal_colour                    ?
_exptl_crystal_density_meas              ?
_exptl_crystal_density_diffrn            5.03
_cell_measurement_temperature            ?
_cell_measurement_radiation              'X-rays, Cu Ka'
_cell_measurement_reflns_used            ?
_diffrn_ambient_temperature              ?
_diffrn_measurement_device               film
_diffrn_measurement_device_type          ?
_diffrn_radiation_type                   ?
_diffrn_reflns_number                    ?
_exptl_absorpt_coefficient_mu            ?
_exptl_absorpt_correction_type           ?
_computing_structure_solution            ?
_refine_ls_number_parameters             ?
_refine_ls_number_reflns                 ?
_refine_ls_R_factor_gt                   ?
_refine_ls_wR_factor_gt                  ?

# End of data set 462636


