##############################################################################
#                                                                            #
# In-Se            # In2Se3 ht1                                    #  530959 #
#                                                                            #
##############################################################################
#                                                                            #
#                           Pearson's Crystal Data                           #
#      Crystal Structure Database for Inorganic Compounds (on DVD)           #
#                              Release 2017/18                               #
#                  Editors: Pierre Villars and Karin Cenzual                 #
#                                                                            #
#   Copyright (c) ASM International & Material Phases Data System (MPDS),    #
# Switzerland & National Institute for Materials Science (NIMS), Japan, 2017 #
#                   All rights reserved. Version 2017.08                     #
#                                                                            #
#   This copy of Pearson's Crystal Data is licensed to:                      #
#   University of Alberta, Chemistry Department, 1-5 Installations License         #
#                                                                            #
##############################################################################

data_530959
_audit_creation_date                     2017-12-01
_audit_creation_method
;
Pearson's Crystal Data browser
;
#_database_code_PCD                      530959

# Entry summary

_chemical_formula_structural             'In~2~ Se~3~'
_chemical_formula_sum                    'In2 Se3'
_chemical_name_mineral                   ?
_chemical_compound_source                ?
_chemical_name_structure_type            In~2~Se~3~,hP30,169
_chemical_formula_weight                 466.5

# Bibliographic data

_publ_section_title
'Revised and new crystal data for indium selenides'                           
_journal_coden_ASTM                      JACGAR
_journal_name_full                       'J. Appl. Crystallogr.'
_journal_year                            1979
_journal_volume                          12
_journal_page_first                      416
_journal_page_last                       420
_journal_language                        English
loop_
 _publ_author_name
 _publ_author_address
'Popovic S.'
;
Zagreb University
Institute of Physics
Zagreb
Croatia
;
'Tonejc A.'
;
Zagreb University
Institute of Physics
Zagreb
Croatia
;
'Grzeta Plenkovic B.'
;
Zagreb Rudjer Boskovic Institute
Zagreb
Croatia
;
'Celustka B.'
;
Zagreb Rudjer Boskovic Institute
Zagreb
Croatia
;
'Trojko R.'
;
Zagreb University
Institute of Physics
Zagreb
Croatia
;

# Standardized crystallographic data

_cell_length_a                           7.133
_cell_length_b                           7.133
_cell_length_c                           19.58
_cell_angle_alpha                        90
_cell_angle_beta                         90
_cell_angle_gamma                        120
_cell_volume                             862.76
_cell_formula_units_Z                    6
_space_group_IT_number                   169
_space_group_name_H-M_alt                'P 61'
loop_
 _space_group_symop_id
 _space_group_symop_operation_xyz
 1 'x, y, z'
 2 '-x+y, -x, -1/3+z'
 3 '-x, -y, 1/2+z'
 4 '-y, x-y, 1/3+z'
 5 'x-y, x, 1/6+z'
 6 'y, -x+y, -1/6+z'

# Atomic positions taken from type-defining entry

loop_
 _atom_type_symbol
 In
 Se
loop_
 _atom_site_label
 _atom_site_type_symbol
 _atom_site_symmetry_multiplicity
 _atom_site_Wyckoff_symbol
 _atom_site_fract_x
 _atom_site_fract_y
 _atom_site_fract_z
 _atom_site_occupancy
 In1 In 6 a 0.0117 0.3137 0.0 1
 Se1 Se 6 a 0.0742 0.3470 0.14696 1
 In2 In 6 a 0.3417 0.0152 0.30489 1
 Se2 Se 6 a 0.3473 0.0436 0.1693 1
 Se3 Se 6 a 0.3662 0.0250 0.51459 1


_exptl_crystal_colour                    ?
_exptl_crystal_density_meas              ?
_exptl_crystal_density_diffrn            5.39
_cell_measurement_temperature            803
_cell_measurement_radiation              'X-rays, Cu Ka1'
_cell_measurement_wavelength             1.54051
_pd_proc_wavelength                      1.54051
_cell_measurement_reflns_used            ?
_diffrn_ambient_temperature              ?
_diffrn_measurement_device               'high-temperature camera'
_diffrn_measurement_device_type          ?
_diffrn_radiation_type                   ?
_diffrn_reflns_number                    ?
_exptl_absorpt_coefficient_mu            ?
_exptl_absorpt_correction_type           ?
_computing_structure_solution            ?
_refine_ls_number_parameters             ?
_refine_ls_number_reflns                 ?
_refine_ls_R_factor_gt                   ?
_refine_ls_wR_factor_gt                  ?

# Published diffraction lines

loop_
 _refln_index_h
 _refln_index_k
 _refln_index_l
 _refln_d_spacing
 _refln_intensity_meas
 1 0 2 52.1 18
 1 1 0 35.6 52
 1 0 5 33 7
 0 0 6 32.5 100
 2 0 1 30.4 16
 2 0 2 29.4 24
 2 0 5 24.2 8
 1 1 6 24 45
 2 1 1 23.1 15
 1 0 8 22.7 37
 3 0 0 20.5 48
 2 1 5 20 11
 2 0 8 19.16 18
 2 2 0 17.82 12
 3 0 6 17.4 38
 2 1 8 16.88 16
 2 2 6 15.66 5
 2 1 11 14.14 7
 3 1 8 14.03 3
 4 1 0 13.48 4
 3 2 5 13.33 4
 4 1 6 12.47 5
 3 2 8 12.26 5
 5 0 4 11.96 2
 3 3 0 11.89 12
 3 3 6 11.17 6
 5 1 1 11.08 2

# End of data set 530959


