##############################################################################
#                                                                            #
# In-Se            # In2Se3 ht1                                    #  529987 #
#                                                                            #
##############################################################################
#                                                                            #
#                           Pearson's Crystal Data                           #
#      Crystal Structure Database for Inorganic Compounds (on DVD)           #
#                              Release 2017/18                               #
#                  Editors: Pierre Villars and Karin Cenzual                 #
#                                                                            #
#   Copyright (c) ASM International & Material Phases Data System (MPDS),    #
# Switzerland & National Institute for Materials Science (NIMS), Japan, 2017 #
#                   All rights reserved. Version 2017.08                     #
#                                                                            #
#   This copy of Pearson's Crystal Data is licensed to:                      #
#   University of Alberta, Chemistry Department, 1-5 Installations License         #
#                                                                            #
##############################################################################

data_529987
_audit_creation_date                     2017-12-01
_audit_creation_method
;
Pearson's Crystal Data browser
;
#_database_code_PCD                      529987

# Entry summary

_chemical_formula_structural             'In~2~ Se~3~'
_chemical_formula_sum                    'In2 Se3'
_chemical_name_mineral                   ?
_chemical_compound_source                ?
_chemical_name_structure_type            In~2~Se~3~,hP30,169
_chemical_formula_weight                 466.5

# Bibliographic data

_publ_section_title
;
Sur les s\'el\'eniures sup\'erieurs d'indium In~2~Se~3~, In~5~Se~7~ et In~6~Se~7~
;
_journal_coden_ASTM                      CHDCAQ
_journal_name_full                       'C. R. Seances Acad. Sci., Ser. C'
_journal_year                            1972
_journal_volume                          274
_journal_page_first                      378
_journal_page_last                       381
_journal_language                        French
loop_
 _publ_author_name
 _publ_author_address
'Likforman A.'
;
Paris University
Paris
France
;
'Messin D.'
;
Grenoble
France
;
'Guittard M.'
;
Paris University
Paris
France
;
'Flahaut J.'
;
Paris University
Paris
France
;

# Standardized crystallographic data

_cell_length_a                           7.12
_cell_length_b                           7.12
_cell_length_c                           19.38
_cell_angle_alpha                        90
_cell_angle_beta                         90
_cell_angle_gamma                        120
_cell_volume                             850.83
_cell_formula_units_Z                    6
_space_group_IT_number                   169
_space_group_name_H-M_alt                'P 61'
loop_
 _space_group_symop_id
 _space_group_symop_operation_xyz
 1 'x, y, z'
 2 '-x+y, -x, -1/3+z'
 3 '-x, -y, 1/2+z'
 4 '-y, x-y, 1/3+z'
 5 'x-y, x, 1/6+z'
 6 'y, -x+y, -1/6+z'

# Atomic positions taken from type-defining entry

loop_
 _atom_type_symbol
 In
 Se
loop_
 _atom_site_label
 _atom_site_type_symbol
 _atom_site_symmetry_multiplicity
 _atom_site_Wyckoff_symbol
 _atom_site_fract_x
 _atom_site_fract_y
 _atom_site_fract_z
 _atom_site_occupancy
 In1 In 6 a 0.0117 0.3137 0.0 1
 Se1 Se 6 a 0.0742 0.3470 0.14696 1
 In2 In 6 a 0.3417 0.0152 0.30489 1
 Se2 Se 6 a 0.3473 0.0436 0.1693 1
 Se3 Se 6 a 0.3662 0.0250 0.51459 1


_exptl_crystal_colour                    ?
_exptl_crystal_density_meas              ?
_exptl_crystal_density_diffrn            5.46
_cell_measurement_temperature            ?
_cell_measurement_radiation              X-rays
_cell_measurement_reflns_used            ?
_diffrn_ambient_temperature              ?
_diffrn_measurement_device               'Weissenberg photographs'
_diffrn_measurement_device_type          ?
_diffrn_radiation_type                   ?
_diffrn_reflns_number                    ?
_exptl_absorpt_coefficient_mu            ?
_exptl_absorpt_correction_type           ?
_computing_structure_solution            ?
_refine_ls_number_parameters             ?
_refine_ls_number_reflns                 ?
_refine_ls_R_factor_gt                   ?
_refine_ls_wR_factor_gt                  ?

# End of data set 529987


