##############################################################################
#                                                                            #
# Bi-In-S          # In4Bi2S9                                      # 1008899 #
#                                                                            #
##############################################################################
#                                                                            #
#                           Pearson's Crystal Data                           #
#      Crystal Structure Database for Inorganic Compounds (on DVD)           #
#                              Release 2017/18                               #
#                  Editors: Pierre Villars and Karin Cenzual                 #
#                                                                            #
#   Copyright (c) ASM International & Material Phases Data System (MPDS),    #
# Switzerland & National Institute for Materials Science (NIMS), Japan, 2017 #
#                   All rights reserved. Version 2017.08                     #
#                                                                            #
#   This copy of Pearson's Crystal Data is licensed to:                      #
#   University of Alberta, Chemistry Department, 1-5 Installations License         #
#                                                                            #
##############################################################################

data_1008899
_audit_creation_date                     2017-12-04
_audit_creation_method
;
Pearson's Crystal Data browser
;
#_database_code_PCD                      1008899

# Entry summary

_chemical_formula_structural             'In~4~ Bi~2~ S~9~'
_chemical_formula_sum                    'Bi2 In4 S9'
_chemical_name_mineral                   ?
_chemical_compound_source                ?
_chemical_name_structure_type            In~4~Bi~2~S~9~,mP30,11
_chemical_formula_weight                 1165.8

# Bibliographic data

_publ_section_title
'In~4~Bi~2~S~9~, eine neue Verbindung im System In~2~S~3~-Bi~2~S~3~'          
_journal_coden_ASTM                      ZENBAX
_journal_name_full                       'Z. Naturforsch. B'
_journal_year                            1971
_journal_volume                          26
_journal_page_first                      1074
_journal_page_last                       ?
_journal_language                        German
loop_
 _publ_author_name
 _publ_author_address
'Kr\"amer V.'
;
Freiburg im Breisgau Albert Ludwig University
Institut f\"ur Kristallographie
Freiburg im Breisgau
Germany
;
'Nitsche R.'
;
Freiburg im Breisgau Albert Ludwig University
Institut f\"ur Kristallographie
Freiburg im Breisgau
Germany
;

# Standardized crystallographic data

_cell_length_a                           11
_cell_length_b                           3.93
_cell_length_c                           16.05
_cell_angle_alpha                        90
_cell_angle_beta                         94.
_cell_angle_gamma                        90
_cell_volume                             692.2
_cell_formula_units_Z                    2
_space_group_IT_number                   11
_space_group_name_H-M_alt                'P 1 21/m 1'
loop_
 _space_group_symop_id
 _space_group_symop_operation_xyz
 1 'x, y, z'
 2 '-x, -y, -z'
 3 '-x, 1/2+y, -z'
 4 'x, 1/2-y, z'

# Atomic positions taken from type-defining entry

loop_
 _atom_type_symbol
 In
 S
 Bi
loop_
 _atom_site_label
 _atom_site_type_symbol
 _atom_site_symmetry_multiplicity
 _atom_site_Wyckoff_symbol
 _atom_site_fract_x
 _atom_site_fract_y
 _atom_site_fract_z
 _atom_site_occupancy
 In1 In 2 e 0.0068 0.25 0.905 1
 In2 In 2 e 0.0142 0.25 0.2886 1
 S1 S 2 e 0.1279 0.25 0.0452 1
 S2 S 2 e 0.2301 0.25 0.4191 1
 In3 In 2 e 0.2326 0.25 0.5798 1
 S3 S 2 e 0.3495 0.25 0.7167 1
 S4 S 2 e 0.4002 0.25 0.9329 1
 S5 S 2 e 0.4044 0.25 0.1892 1
 S6 S 2 e 0.5902 0.25 0.4424 1
 Bi1 Bi 2 e 0.6082 0.25 0.6015 1
 Bi2 Bi 2 e 0.6339 0.25 0.9207 1
 In4 In 2 e 0.6418 0.25 0.1837 1
 S7 S 2 e 0.8679 0.25 0.1581 1
 S8 S 2 e 0.8755 0.25 0.759 1
 S9 S 2 e 0.9141 0.25 0.418 1


_exptl_crystal_colour                    black
_exptl_crystal_density_meas              5.53
_exptl_crystal_density_diffrn            5.59
_cell_measurement_temperature            ?
_cell_measurement_radiation              ?
_cell_measurement_reflns_used            ?
_diffrn_ambient_temperature              ?
_diffrn_measurement_device               ?
_diffrn_measurement_device_type          ?
_diffrn_radiation_type                   ?
_diffrn_reflns_number                    ?
_exptl_absorpt_coefficient_mu            ?
_exptl_absorpt_correction_type           ?
_computing_structure_solution            ?
_refine_ls_number_parameters             ?
_refine_ls_number_reflns                 ?
_refine_ls_R_factor_gt                   ?
_refine_ls_wR_factor_gt                  ?

# End of data set 1008899


