##############################################################################
#                                                                            #
# In-Se            # In6Se7 (Sn)                                   #  549859 #
#                                                                            #
##############################################################################
#                                                                            #
#                           Pearson's Crystal Data                           #
#      Crystal Structure Database for Inorganic Compounds (on DVD)           #
#                              Release 2017/18                               #
#                  Editors: Pierre Villars and Karin Cenzual                 #
#                                                                            #
#   Copyright (c) ASM International & Material Phases Data System (MPDS),    #
# Switzerland & National Institute for Materials Science (NIMS), Japan, 2017 #
#                   All rights reserved. Version 2017.08                     #
#                                                                            #
#   This copy of Pearson's Crystal Data is licensed to:                      #
#   University of Alberta, Chemistry Department, 1-5 Installations License         #
#                                                                            #
##############################################################################

data_549859
_audit_creation_date                     2017-12-04
_audit_creation_method
;
Pearson's Crystal Data browser
;
#_database_code_PCD                      549859

# Entry summary

_chemical_formula_structural             'In~6~ Se~7~'
_chemical_formula_sum                    'In6 Se7'
_chemical_name_mineral                   ?
_chemical_compound_source                ?
_chemical_name_structure_type
In~5~(In~0.91~Sn~0.09~)~0.92~S~7~,mP26,11                                     
_chemical_formula_weight                 1241.6

# Bibliographic data

_publ_section_title
'Growing single crystals of indium selenides from the gaseous phase'          
_journal_coden_ASTM                      INOMAF
_journal_name_full                       'Inorg. Mater.'
_journal_year                            1965
_journal_volume                          1
_journal_page_first                      779
_journal_page_last                       782
_journal_language                        English
loop_
 _publ_author_name
 _publ_author_address
'Medvedeva Z.S.'
;
Russian Academy of Sciences
Kurnakov N.S. Institute of General and Inorganic Chemistry
Moscow
Russia
;
'Guliev T.N.'
;
Azerbaijan Academy of Sciences
Institute of Inorganic and Physical Chemistry
Baku
Azerbaijan
;

# Standardized crystallographic data

_cell_length_a                           9.397
_cell_length_b                           4.11
_cell_length_c                           17.43
_cell_angle_alpha                        90
_cell_angle_beta                         101.
_cell_angle_gamma                        90
_cell_volume                             660.8
_cell_formula_units_Z                    2
_space_group_IT_number                   11
_space_group_name_H-M_alt                'P 1 21/m 1'
loop_
 _space_group_symop_id
 _space_group_symop_operation_xyz
 1 'x, y, z'
 2 '-x, -y, -z'
 3 '-x, 1/2+y, -z'
 4 'x, 1/2-y, z'

# Atomic positions taken from type-defining entry

loop_
 _atom_type_symbol
 In
 Se
loop_
 _atom_site_label
 _atom_site_type_symbol
 _atom_site_symmetry_multiplicity
 _atom_site_Wyckoff_symbol
 _atom_site_fract_x
 _atom_site_fract_y
 _atom_site_fract_z
 _atom_site_occupancy
 In1 In 2 e 0.02201 0.25 0.60446 1
 In2 In 2 e 0.06685 0.25 0.12216 1
 Se1 Se 2 e 0.1170 0.25 0.3455 1
 Se2 Se 2 e 0.1649 0.25 0.9947 1
 Se3 Se 2 e 0.2410 0.25 0.7275 1
 In3 In 2 e 0.32791 0.25 0.46789 1
 In4 In 2 e 0.47086 0.25 0.27478 1
 Se4 Se 2 e 0.5354 0.25 0.5901 1
 Se5 Se 2 e 0.5569 0.25 0.0906 1
 In5 In 2 e 0.64484 0.25 0.95325 1
 Se6 Se 2 e 0.7546 0.25 0.8250 1
 In6 In 2 e 0.81767 0.25 0.18883 1
 Se7 Se 2 e 0.8311 0.25 0.4678 1


_exptl_crystal_colour                    ?
_exptl_crystal_density_meas              5.66
_exptl_crystal_density_diffrn            6.24
_cell_measurement_temperature            ?
_cell_measurement_radiation              X-rays
_cell_measurement_reflns_used            ?
_diffrn_ambient_temperature              ?
_diffrn_measurement_device               film
_diffrn_measurement_device_type          ?
_diffrn_radiation_type                   ?
_diffrn_reflns_number                    ?
_exptl_absorpt_coefficient_mu            ?
_exptl_absorpt_correction_type           ?
_computing_structure_solution            ?
_refine_ls_number_parameters             ?
_refine_ls_number_reflns                 ?
_refine_ls_R_factor_gt                   ?
_refine_ls_wR_factor_gt                  ?

# End of data set 549859


