##############################################################################
#                                                                            #
# In-S             # In6S7                                         #  528389 #
#                                                                            #
##############################################################################
#                                                                            #
#                           Pearson's Crystal Data                           #
#      Crystal Structure Database for Inorganic Compounds (on DVD)           #
#                              Release 2017/18                               #
#                  Editors: Pierre Villars and Karin Cenzual                 #
#                                                                            #
#   Copyright (c) ASM International & Material Phases Data System (MPDS),    #
# Switzerland & National Institute for Materials Science (NIMS), Japan, 2017 #
#                   All rights reserved. Version 2017.08                     #
#                                                                            #
#   This copy of Pearson's Crystal Data is licensed to:                      #
#   University of Alberta, Chemistry Department, 1-5 Installations License         #
#                                                                            #
##############################################################################

data_528389
_audit_creation_date                     2017-12-01
_audit_creation_method
;
Pearson's Crystal Data browser
;
#_database_code_PCD                      528389

# Entry summary

_chemical_formula_structural             'In~6~ S~7~'
_chemical_formula_sum                    'In6 S7'
_chemical_name_mineral                   ?
_chemical_compound_source                ?
_chemical_name_structure_type
In~5~(In~0.91~Sn~0.09~)~0.92~S~7~,mP26,11                                     
_chemical_formula_weight                 913.3

# Bibliographic data

_publ_section_title
'Crystalline Phases in the System In-In~2~S~3~'                               
_journal_coden_ASTM                      ACCRA9
_journal_name_full                       'Acta Crystallogr.'
_journal_year                            1966
_journal_volume                          20
_journal_page_first                      566
_journal_page_last                       569
_journal_language                        English
loop_
 _publ_author_name
 _publ_author_address
'Duffin W.J.'
;
Hull University
Department of Physics
Hull
United Kingdom
;
'Hogg J.H.C.'
;
Hull University
Department of Physics
Hull
United Kingdom
;

# Standardized crystallographic data

_cell_length_a                           9.09
_cell_length_b                           3.887
_cell_length_c                           17.1919
_cell_angle_alpha                        90
_cell_angle_beta                         101.951
_cell_angle_gamma                        90
_cell_volume                             594.27
_cell_formula_units_Z                    2
_space_group_IT_number                   11
_space_group_name_H-M_alt                'P 1 21/m 1'
loop_
 _space_group_symop_id
 _space_group_symop_operation_xyz
 1 'x, y, z'
 2 '-x, -y, -z'
 3 '-x, 1/2+y, -z'
 4 'x, 1/2-y, z'

# Atomic positions taken from type-defining entry

loop_
 _atom_type_symbol
 In
 S
loop_
 _atom_site_label
 _atom_site_type_symbol
 _atom_site_symmetry_multiplicity
 _atom_site_Wyckoff_symbol
 _atom_site_fract_x
 _atom_site_fract_y
 _atom_site_fract_z
 _atom_site_occupancy
 In1 In 2 e 0.02201 0.25 0.60446 1
 In2 In 2 e 0.06685 0.25 0.12216 1
 S1 S 2 e 0.1170 0.25 0.3455 1
 S2 S 2 e 0.1649 0.25 0.9947 1
 S3 S 2 e 0.2410 0.25 0.7275 1
 In3 In 2 e 0.32791 0.25 0.46789 1
 In4 In 2 e 0.47086 0.25 0.27478 1
 S4 S 2 e 0.5354 0.25 0.5901 1
 S5 S 2 e 0.5569 0.25 0.0906 1
 In5 In 2 e 0.64484 0.25 0.95325 1
 S6 S 2 e 0.7546 0.25 0.8250 1
 In6 In 2 e 0.81767 0.25 0.18883 1
 S7 S 2 e 0.8311 0.25 0.4678 1


_exptl_crystal_colour                    black
_exptl_crystal_density_meas              ?
_exptl_crystal_density_diffrn            5.10
_cell_measurement_temperature            ?
_cell_measurement_radiation              'X-rays, Cu Ka'
_cell_measurement_reflns_used            ?
_diffrn_ambient_temperature              ?
_diffrn_measurement_device               'automatic diffractometer'
_diffrn_measurement_device_type          ?
_diffrn_radiation_type                   ?
_diffrn_reflns_number                    ?
_exptl_absorpt_coefficient_mu            ?
_exptl_absorpt_correction_type           ?
_computing_structure_solution            ?
_refine_ls_number_parameters             ?
_refine_ls_number_reflns                 ?
_refine_ls_R_factor_gt                   ?
_refine_ls_wR_factor_gt                  ?

# Published diffraction lines

loop_
 _refln_index_h
 _refln_index_k
 _refln_index_l
 _refln_d_spacing
 _refln_intensity_meas
 0 0 2 84.06 21
 0 0 3 56.14 10
 1 0 2 52.64 15
 2 0 -1 45.39 26
 2 0 -2 44.44 9
 1 0 -4 43.58 50
 1 0 3 41.54 26
 2 0 -3 40.96 2
 2 0 1 38.97 7
 0 1 1 37.87 36
 2 0 -4 36.31 5
 1 1 0 35.43 25
 1 0 -5 35.31 98
 2 0 2 34.3 53
 1 0 4 33.87 65
 0 1 3 31.88 92
 3 0 -2 30.31 5
 2 0 3 29.97 93
 2 1 -1 29.52 27
 2 1 -2 29.24 8
 1 1 -4 29 10
 2 1 0 28.88 5
 0 1 4 28.55 10
 3 0 -4 28.21 63
 2 0 -6 27.82 29
 2 1 1 27.52 91
 2 1 -4 26.55 54
 3 0 -5 26.32 48
 2 1 2 25.7 100
 1 0 -7 25.26 7
 1 0 6 24.49 12
 3 1 -2 23.89 23
 3 1 -3 23.58 7
 1 1 -6 23.49 28
 3 1 -4 22.85 16
 0 1 6 22.74 54
 4 0 -1 22.34 4
 3 0 -7 22.17 6
 3 1 -5 21.79 8
 4 0 0 21.61 6
 1 0 7 21.48 10
 4 0 -6 20.46 30
 3 1 3 19.71 31
 2 0 -9 19.52 44
 0 2 0 19.43 92
 4 1 -1 19.3 53
 1 1 -8 19.2 19
 1 0 8 19.09 13
 2 1 -8 18.98 16
 4 1 0 18.86 44
 1 1 7 18.8 33
 0 0 9 18.68 6
 0 1 8 18.48 21
 4 0 3 18.32 23
 4 1 -6 18.08 11
 2 2 -1 17.86 4
 1 2 -4 17.74 11
 2 0 -10 17.63 8
 4 1 -7 17.31 20
 3 1 5 17.15 22
 1 2 -5 17.03 19
 2 0 8 16.95 10
 1 2 4 16.85 12
 3 1 -9 16.72 4
 4 1 3 16.59 6
 5 1 -3 16.46 12
 5 1 -2 16.39 16
 2 2 3 16.3 31

# End of data set 528389


