##############################################################################
#                                                                            #
# I-In-O           # In[IO3]3 hex                                  # 1522274 #
#                                                                            #
##############################################################################
#                                                                            #
#                           Pearson's Crystal Data                           #
#      Crystal Structure Database for Inorganic Compounds (on DVD)           #
#                              Release 2017/18                               #
#                  Editors: Pierre Villars and Karin Cenzual                 #
#                                                                            #
#   Copyright (c) ASM International & Material Phases Data System (MPDS),    #
# Switzerland & National Institute for Materials Science (NIMS), Japan, 2017 #
#                   All rights reserved. Version 2017.08                     #
#                                                                            #
#   This copy of Pearson's Crystal Data is licensed to:                      #
#   University of Alberta, Chemistry Department, 1-5 Installations License         #
#                                                                            #
##############################################################################

data_1522274
_audit_creation_date                     2017-12-05
_audit_creation_method
;
Pearson's Crystal Data browser
;
#_database_code_PCD                      1522274

# Entry summary

_chemical_formula_structural             'In [I O~3~]~3~'
_chemical_formula_sum                    'I3 In O9'
_chemical_name_mineral                   ?
_chemical_compound_source                ?
_chemical_name_structure_type            Fe[IO~3~]~3~,hP26,173
_chemical_formula_weight                 639.5

# Bibliographic data

_publ_section_title
;
Hydrothermal synthesis and crystal structures of two NLO compounds, NaIO~3~.H~2~O and In(IO~3~)~3~
;
_journal_coden_ASTM                      JALCEU
_journal_name_full                       'J. Alloys Compd.'
_journal_year                            2006
_journal_volume                          415
_journal_page_first                      261
_journal_page_last                       265
_journal_language                        English
loop_
 _publ_author_name
 _publ_author_address
'Chen X.'
;
Beijing University of Science and Technology
College of Material Science and Engineering
Beijing
China
;
'Xue H.'
;
Beijing University of Science and Technology
College of Material Science and Engineering
Beijing
China
;
'Chang X.A.'
;
Beijing University of Science and Technology
College of Material Science and Engineering
Beijing
China
;
'Zhang L.'
;
Beijing University of Science and Technology
College of Material Science and Engineering
Beijing
China
;
'Zang H.G.'
;
Beijing University of Science and Technology
College of Material Science and Engineering
Beijing
China
;
'Xiao W.Q.'
;
Beijing University of Technology
Institute of Microstructure and Property of Advanced Materials
Beijing
China
;

# Standardized crystallographic data

_cell_length_a                           9.5463
_cell_length_b                           9.5463
_cell_length_c                           5.2745
_cell_angle_alpha                        90
_cell_angle_beta                         90
_cell_angle_gamma                        120
_cell_volume                             416.3
_cell_formula_units_Z                    2
_space_group_IT_number                   173
_space_group_name_H-M_alt                'P 63'
loop_
 _space_group_symop_id
 _space_group_symop_operation_xyz
 1 'x, y, z'
 2 '-x+y, -x, z'
 3 '-x, -y, 1/2+z'
 4 '-y, x-y, z'
 5 'x-y, x, 1/2+z'
 6 'y, -x+y, 1/2+z'
loop_
 _atom_type_symbol
 I
 O
 In
loop_
 _atom_site_label
 _atom_site_type_symbol
 _atom_site_symmetry_multiplicity
 _atom_site_Wyckoff_symbol
 _atom_site_fract_x
 _atom_site_fract_y
 _atom_site_fract_z
 _atom_site_occupancy
 I I 6 c 0.02062 0.33568 0.36432 1
 O3 O 6 c 0.0593 0.2284 0.12459 1
 O1 O 6 c 0.1207 0.54 0.22959 1
 O2 O 6 c 0.4665 0.1813 0.26109 1
 In In 2 b 0.333333 0.666667 0.0 1


_exptl_crystal_colour                    colorless
_exptl_crystal_density_meas              ?
_exptl_crystal_density_diffrn            5.10
_cell_measurement_temperature            298
_cell_measurement_radiation              'X-rays, Mo Ka'
_cell_measurement_wavelength             0.71073
_cell_measurement_reflns_used            25
_diffrn_ambient_temperature              298
_diffrn_measurement_device               'automatic diffractometer'
_diffrn_measurement_device_type          'Rigaku AFC7R'
_diffrn_radiation_type                   'X-rays, Mo Ka'
_diffrn_radiation_wavelength             0.71073
_diffrn_reflns_number                    3002
_exptl_absorpt_coefficient_mu            13.987
_exptl_absorpt_correction_type           empirical
_computing_structure_solution            'direct methods'
_refine_ls_number_parameters             41
_refine_ls_number_reflns                 998
_refine_ls_R_factor_gt                   0.0268
_refine_ls_wR_factor_gt                  0.0547

# End of data set 1522274


