##############################################################################
#                                                                            #
# Br-In            # InBr3                                         #  542079 #
#                                                                            #
##############################################################################
#                                                                            #
#                           Pearson's Crystal Data                           #
#      Crystal Structure Database for Inorganic Compounds (on DVD)           #
#                              Release 2017/18                               #
#                  Editors: Pierre Villars and Karin Cenzual                 #
#                                                                            #
#   Copyright (c) ASM International & Material Phases Data System (MPDS),    #
# Switzerland & National Institute for Materials Science (NIMS), Japan, 2017 #
#                   All rights reserved. Version 2017.08                     #
#                                                                            #
#   This copy of Pearson's Crystal Data is licensed to:                      #
#   University of Alberta, Chemistry Department, 1-5 Installations License         #
#                                                                            #
##############################################################################

data_542079
_audit_creation_date                     2017-12-04
_audit_creation_method
;
Pearson's Crystal Data browser
;
#_database_code_PCD                      542079

# Entry summary

_chemical_formula_structural             'In Br~3~'
_chemical_formula_sum                    'Br3 In'
_chemical_name_mineral                   ?
_chemical_compound_source                ?
_chemical_name_structure_type            AlCl~3~,mS16,12
_chemical_formula_weight                 354.5

# Bibliographic data

_publ_section_title
;
In~5~Br~7~, the second mixed-valence In^1+^-In^2+^ bromide: In^1+^~3~[In^2+^~2~Br~6~]Br. With an appendix on a structure refinement of InBr~3~
;
_journal_coden_ASTM                      ZAACAB
_journal_name_full                       'Z. Anorg. Allg. Chem.'
_journal_year                            1988
_journal_volume                          563
_journal_page_first                      27
_journal_page_last                       37
_journal_language                        English
loop_
 _publ_author_name
 _publ_author_address
'Staffel T.'
;
Giessen Justus Liebig University
Institut f\"ur Anorganische und Analytische Chemie
Giessen
Germany
;
'Meyer G.'
;
Giessen Justus Liebig University
Institut f\"ur Anorganische und Analytische Chemie
Giessen
Germany
;

# Standardized crystallographic data

_cell_length_a                           6.696
_cell_length_b                           11.641
_cell_length_c                           6.633
_cell_angle_alpha                        90
_cell_angle_beta                         108.99
_cell_angle_gamma                        90
_cell_volume                             488.9
_cell_formula_units_Z                    4
_space_group_IT_number                   12
_space_group_name_H-M_alt                'C 1 2/m 1'
loop_
 _space_group_symop_id
 _space_group_symop_operation_xyz
 1 'x, y, z'
 2 '-x, -y, -z'
 3 '-x, y, -z'
 4 'x, -y, z'
 5 '1/2+x, 1/2+y, z'
 6 '1/2-x, 1/2-y, -z'
 7 '1/2-x, 1/2+y, -z'
 8 '1/2+x, 1/2-y, z'
loop_
 _atom_type_symbol
 Br
 In
loop_
 _atom_site_label
 _atom_site_type_symbol
 _atom_site_symmetry_multiplicity
 _atom_site_Wyckoff_symbol
 _atom_site_fract_x
 _atom_site_fract_y
 _atom_site_fract_z
 _atom_site_occupancy
 Br2 Br 8 j 0.2534 0.326 0.2421 1
 Br1 Br 4 i 0.2309 0 0.2462 1
 In In 4 g 0 0.1668 0 1


_exptl_crystal_colour                    ?
_exptl_crystal_density_meas              ?
_exptl_crystal_density_diffrn            4.82
_cell_measurement_temperature            ?
_cell_measurement_radiation              'X-rays, Cu Ka'
_cell_measurement_reflns_used            ?
_diffrn_ambient_temperature              ?
_diffrn_measurement_device               'automatic diffractometer'
_diffrn_measurement_device_type          'Philips PW1100'
_diffrn_radiation_type                   'X-rays, Mo Ka'
_diffrn_radiation_wavelength             0.7107
_diffrn_reflns_number                    1557
_diffrn_reflns_theta_min                 3
_diffrn_reflns_theta_max                 30
_exptl_absorpt_coefficient_mu            28.252
_exptl_absorpt_correction_type           yes
_computing_structure_solution            'starting values from the literature'
_refine_ls_number_parameters             ?
_refine_ls_number_reflns                 658
_refine_ls_R_factor_gt                   0.089
_refine_ls_wR_factor_gt                  0.080

# End of data set 542079


