##############################################################################
#                                                                            #
# F-H-In-O         # InF3[H2O]3 mon                                # 1503758 #
#                                                                            #
##############################################################################
#                                                                            #
#                           Pearson's Crystal Data                           #
#      Crystal Structure Database for Inorganic Compounds (on DVD)           #
#                              Release 2017/18                               #
#                  Editors: Pierre Villars and Karin Cenzual                 #
#                                                                            #
#   Copyright (c) ASM International & Material Phases Data System (MPDS),    #
# Switzerland & National Institute for Materials Science (NIMS), Japan, 2017 #
#                   All rights reserved. Version 2017.08                     #
#                                                                            #
#   This copy of Pearson's Crystal Data is licensed to:                      #
#   University of Alberta, Chemistry Department, 1-5 Installations License         #
#                                                                            #
##############################################################################

data_1503758
_audit_creation_date                     2017-12-05
_audit_creation_method
;
Pearson's Crystal Data browser
;
#_database_code_PCD                      1503758

# Entry summary

_chemical_formula_structural             'In F~3~ [H~2~ O]~3~'
_chemical_formula_sum                    'F3 H6 In O3'
_chemical_name_mineral                   ?
_chemical_compound_source                ?
_chemical_name_structure_type            InF~3~[H~2~O]~3~,mP14,13
_chemical_formula_weight                 225.9

# Bibliographic data

_publ_section_title
'An X-ray study of crystals of InF~3~.3H~2~O'                                 
_journal_coden_ASTM                      SPHCA6
_journal_name_full                       'Sov. Phys. Crystallogr.'
_journal_year                            1956
_journal_volume                          1
_journal_page_first                      152
_journal_page_last                       157
_journal_language                        English
loop_
 _publ_author_name
 _publ_author_address
'Bokii G.B.'
;
Russian Academy of Sciences
Kalinin Polytechnic Institute
Krasnoyarsk
Russia
;
'Khodashova T.S.'
;
Russian Academy of Sciences
Kalinin Polytechnic Institute
Krasnoyarsk
Russia
;

# Standardized crystallographic data

_cell_length_a                           7.9
_cell_length_b                           4.14
_cell_length_c                           11.1723
_cell_angle_alpha                        90
_cell_angle_beta                         135.
_cell_angle_gamma                        90
_cell_volume                             258.4
_cell_formula_units_Z                    2
_space_group_IT_number                   13
_space_group_name_H-M_alt                'P 1 2/c 1'
loop_
 _space_group_symop_id
 _space_group_symop_operation_xyz
 1 'x, y, z'
 2 '-x, -y, -z'
 3 '-x, y, 1/2-z'
 4 'x, -y, 1/2+z'
loop_
 _atom_type_symbol
 OH2
 F
 In
loop_
 _atom_site_label
 _atom_site_type_symbol
 _atom_site_symmetry_multiplicity
 _atom_site_Wyckoff_symbol
 _atom_site_fract_x
 _atom_site_fract_y
 _atom_site_fract_z
 _atom_site_occupancy
 H2O2 OH2 4 g 0.141 0.29 0.008 1
 F2 F 4 g 0.374 0.665 0.363 1
 F1 F 2 f 0.5 0.165 0.25 1
 In In 2 f 0.5 0.665 0.25 1
 H2O1 OH2 2 e 0 0.061 0.25 1


_exptl_crystal_colour                    colorless
_exptl_crystal_density_meas              ?
_exptl_crystal_density_diffrn            2.90
_cell_measurement_temperature            ?
_cell_measurement_radiation              'X-rays, Cu Ka'
_cell_measurement_reflns_used            ?
_diffrn_ambient_temperature              ?
_diffrn_measurement_device               'oscillation photographs'
_diffrn_measurement_device_type          ?
_diffrn_radiation_type                   'X-rays, Mo Ka'
_diffrn_reflns_number                    ?
_exptl_absorpt_coefficient_mu            ?
_exptl_absorpt_correction_type           ?
_computing_structure_solution            'Patterson and Fourier synthesis'
_refine_ls_number_parameters             ?
_refine_ls_number_reflns                 ?
_refine_ls_R_factor_gt                   ?
_refine_ls_wR_factor_gt                  ?

# End of data set 1503758


