##############################################################################
#                                                                            #
# In-Se            # InSe lt                                       #  530955 #
#                                                                            #
##############################################################################
#                                                                            #
#                           Pearson's Crystal Data                           #
#      Crystal Structure Database for Inorganic Compounds (on DVD)           #
#                              Release 2017/18                               #
#                  Editors: Pierre Villars and Karin Cenzual                 #
#                                                                            #
#   Copyright (c) ASM International & Material Phases Data System (MPDS),    #
# Switzerland & National Institute for Materials Science (NIMS), Japan, 2017 #
#                   All rights reserved. Version 2017.08                     #
#                                                                            #
#   This copy of Pearson's Crystal Data is licensed to:                      #
#   University of Alberta, Chemistry Department, 1-5 Installations License         #
#                                                                            #
##############################################################################

data_530955
_audit_creation_date                     2017-12-01
_audit_creation_method
;
Pearson's Crystal Data browser
;
#_database_code_PCD                      530955

# Entry summary

_chemical_formula_structural             'In Se'
_chemical_formula_sum                    'In Se'
_chemical_name_mineral                   ?
_chemical_compound_source                ?
_chemical_name_structure_type            GaS-a,hP8,194
_chemical_formula_weight                 193.8

# Bibliographic data

_publ_section_title
'Revised and new crystal data for indium selenides'                           
_journal_coden_ASTM                      JACGAR
_journal_name_full                       'J. Appl. Crystallogr.'
_journal_year                            1979
_journal_volume                          12
_journal_page_first                      416
_journal_page_last                       420
_journal_language                        English
loop_
 _publ_author_name
 _publ_author_address
'Popovic S.'
;
Zagreb University
Institute of Physics
Zagreb
Croatia
;
'Tonejc A.'
;
Zagreb University
Institute of Physics
Zagreb
Croatia
;
'Grzeta Plenkovic B.'
;
Zagreb Rudjer Boskovic Institute
Zagreb
Croatia
;
'Celustka B.'
;
Zagreb Rudjer Boskovic Institute
Zagreb
Croatia
;
'Trojko R.'
;
Zagreb University
Institute of Physics
Zagreb
Croatia
;

# Standardized crystallographic data

_cell_length_a                           4.0051
_cell_length_b                           4.0051
_cell_length_c                           16.64
_cell_angle_alpha                        90
_cell_angle_beta                         90
_cell_angle_gamma                        120
_cell_volume                             231.16
_cell_formula_units_Z                    4
_space_group_IT_number                   194
_space_group_name_H-M_alt                'P 63/m m c'
loop_
 _space_group_symop_id
 _space_group_symop_operation_xyz
 1 'x, y, z'
 2 '-x+y, -x, 1/2-z'
 3 '-x+y, -x, z'
 4 '-x+y, y, 1/2-z'
 5 '-x+y, y, z'
 6 '-x, -x+y, -z'
 7 '-x, -x+y, 1/2+z'
 8 '-x, -y, -z'
 9 '-x, -y, 1/2+z'
 10 '-y, -x, 1/2-z'
 11 '-y, -x, z'
 12 '-y, x-y, 1/2-z'
 13 '-y, x-y, z'
 14 'x, x-y, 1/2-z'
 15 'x, x-y, z'
 16 'x, y, 1/2-z'
 17 'x-y, -y, -z'
 18 'x-y, -y, 1/2+z'
 19 'x-y, x, -z'
 20 'x-y, x, 1/2+z'
 21 'y, -x+y, -z'
 22 'y, -x+y, 1/2+z'
 23 'y, x, -z'
 24 'y, x, 1/2+z'

# Atomic positions taken from type-defining entry

loop_
 _atom_type_symbol
 In
 Se
loop_
 _atom_site_label
 _atom_site_type_symbol
 _atom_site_symmetry_multiplicity
 _atom_site_Wyckoff_symbol
 _atom_site_fract_x
 _atom_site_fract_y
 _atom_site_fract_z
 _atom_site_occupancy
 In1 In 4 f 0.333333 0.666667 0.17082 1
 Se1 Se 4 f 0.333333 0.666667 0.60191 1


_exptl_crystal_colour                    ?
_exptl_crystal_density_meas              ?
_exptl_crystal_density_diffrn            5.57
_cell_measurement_temperature            298
_cell_measurement_radiation              'X-rays, Cu Ka1'
_cell_measurement_wavelength             1.54051
_pd_proc_wavelength                      1.54051
_cell_measurement_reflns_used            ?
_diffrn_ambient_temperature              ?
_diffrn_measurement_device               'Debye-Scherrer film'
_diffrn_measurement_device_type          ?
_diffrn_radiation_type                   ?
_diffrn_reflns_number                    ?
_exptl_absorpt_coefficient_mu            ?
_exptl_absorpt_correction_type           ?
_computing_structure_solution            ?
_refine_ls_number_parameters             ?
_refine_ls_number_reflns                 ?
_refine_ls_R_factor_gt                   ?
_refine_ls_wR_factor_gt                  ?

# Published diffraction lines

loop_
 _refln_index_h
 _refln_index_k
 _refln_index_l
 _refln_d_spacing
 _refln_intensity_meas
 0 0 2 83.2 15
 0 0 4 41.7 100
 1 0 0 34.65 2
 1 0 1 34.1 3
 1 0 3 29.4 2
 1 0 5 24 3
 0 0 8 20.8 8
 1 1 0 20 4
 1 0 7 19.7 2
 1 1 4 18.05 2
 2 0 1 17.28 1
 0 0 10 16.63 0.1
 1 1 6 16.23 1
 2 0 5 15.36 0.5
 1 1 8 14.43 1
 0 0 12 13.86 12
 2 1 1 13.07 0.5
 0 0 14 11.87 1
 3 0 0 11.56 0.5
 1 1 12 11.4 3
 0 0 16 10.39 2
 1 1 14 10.23 0.5
 2 2 0 10.01 0.5
 0 0 18 9.24 1
 1 1 16 9.226 2

# End of data set 530955


