##############################################################################
#                                                                            #
# Al-Ir            # Ir2Al9                                        #  452773 #
#                                                                            #
##############################################################################
#                                                                            #
#                           Pearson's Crystal Data                           #
#      Crystal Structure Database for Inorganic Compounds (on DVD)           #
#                              Release 2017/18                               #
#                  Editors: Pierre Villars and Karin Cenzual                 #
#                                                                            #
#   Copyright (c) ASM International & Material Phases Data System (MPDS),    #
# Switzerland & National Institute for Materials Science (NIMS), Japan, 2017 #
#                   All rights reserved. Version 2017.08                     #
#                                                                            #
#   This copy of Pearson's Crystal Data is licensed to:                      #
#   University of Alberta, Chemistry Department, 1-5 Installations License         #
#                                                                            #
##############################################################################

data_452773
_audit_creation_date                     2017-12-01
_audit_creation_method
;
Pearson's Crystal Data browser
;
#_database_code_PCD                      452773

# Entry summary

_chemical_formula_structural             'Ir~2~ Al~9~'
_chemical_formula_sum                    'Al9 Ir2'
_chemical_name_mineral                   ?
_chemical_compound_source                ?
_chemical_name_structure_type            Co~2~Al~9~,mP22,14
_chemical_formula_weight                 627.3

# Bibliographic data

_publ_section_title
'The Crystal Structure of Rh~2~Al~9~ and Ir~2~Al~9~'                          
_journal_coden_ASTM                      ACSAA4
_journal_name_full                       'Acta Chem. Scand.'
_journal_year                            1968
_journal_volume                          22
_journal_page_first                      2822
_journal_page_last                       2826
_journal_language                        English
loop_
 _publ_author_name
 _publ_author_address
'Edshammar L.E.'
;
Stockholm University
Institute of Inorganic and Physical Chemistry
Stockholm
Sweden
;

# Standardized crystallographic data

_cell_length_a                           6.378
_cell_length_b                           6.43
_cell_length_c                           8.732
_cell_angle_alpha                        90
_cell_angle_beta                         94.77
_cell_angle_gamma                        90
_cell_volume                             356.86
_cell_formula_units_Z                    2
_space_group_IT_number                   14
_space_group_name_H-M_alt                'P 1 21/c 1'
loop_
 _space_group_symop_id
 _space_group_symop_operation_xyz
 1 'x, y, z'
 2 '-x, -y, -z'
 3 '-x, 1/2+y, 1/2-z'
 4 'x, 1/2-y, 1/2+z'

# Atomic positions taken from type-defining entry

loop_
 _atom_type_symbol
 Al
 Ir
loop_
 _atom_site_label
 _atom_site_type_symbol
 _atom_site_symmetry_multiplicity
 _atom_site_Wyckoff_symbol
 _atom_site_fract_x
 _atom_site_fract_y
 _atom_site_fract_z
 _atom_site_occupancy
 Al1 Al 4 e 0.0889 0.7101 0.2309 1
 Al2 Al 4 e 0.2159 0.3852 0.0417 1
 Ir1 Ir 4 e 0.2646 0.3851 0.3335 1
 Al3 Al 4 e 0.4044 0.0381 0.2682 1
 Al4 Al 4 e 0.6109 0.1931 0.0014 1
 Al5 Al 2 a 0 0 0 1


_exptl_crystal_colour                    ?
_exptl_crystal_density_meas              ?
_exptl_crystal_density_diffrn            5.84
_cell_measurement_temperature            ?
_cell_measurement_radiation              'X-rays, Cu Ka1'
_cell_measurement_wavelength             1.5405
_pd_proc_wavelength                      1.5405
_cell_measurement_reflns_used            ?
_diffrn_ambient_temperature              ?
_diffrn_measurement_device               'Guinier-Haegg film'
_diffrn_measurement_device_type          ?
_diffrn_radiation_type                   ?
_diffrn_reflns_number                    ?
_exptl_absorpt_coefficient_mu            ?
_exptl_absorpt_correction_type           ?
_computing_structure_solution            ?
_refine_ls_number_parameters             ?
_refine_ls_number_reflns                 ?
_refine_ls_R_factor_gt                   ?
_refine_ls_wR_factor_gt                  ?

# Published diffraction lines

loop_
 _refln_index_h
 _refln_index_k
 _refln_index_l
 _refln_d_spacing
 _refln_intensity_meas
 1 0 0 0.1472 1
 0 1 1 0.2214 5
 1 1 0 0.2906 8
 0 0 2 0.3138 5
 -1 1 1 0.3503 7
 1 1 1 0.3866 7
 -1 0 2 0.4244 7
 0 1 2 0.457 7
 1 0 2 0.496 7
 -1 1 2 0.5687 3
 2 0 0 0.5874 7
 1 1 2 0.6406 2
 0 2 1 0.6529 7
 -2 1 1 0.7736 2
 -1 2 1 0.7813 1
 1 2 1 0.8173 3
 -2 0 2 0.8301 3
 0 1 3 0.8492 5
 -2 1 2 0.9741 1
 -1 2 2 0.998 3
 1 2 2 1.0897 3
 2 1 2 1.1161 5.5
 -2 2 1 1.2035 5.5

# End of data set 452773


