##############################################################################
#                                                                            #
# Ir-Si            # Ir4Si5 rt                                     #  452820 #
#                                                                            #
##############################################################################
#                                                                            #
#                           Pearson's Crystal Data                           #
#      Crystal Structure Database for Inorganic Compounds (on DVD)           #
#                              Release 2017/18                               #
#                  Editors: Pierre Villars and Karin Cenzual                 #
#                                                                            #
#   Copyright (c) ASM International & Material Phases Data System (MPDS),    #
# Switzerland & National Institute for Materials Science (NIMS), Japan, 2017 #
#                   All rights reserved. Version 2017.08                     #
#                                                                            #
#   This copy of Pearson's Crystal Data is licensed to:                      #
#   University of Alberta, Chemistry Department, 1-5 Installations License         #
#                                                                            #
##############################################################################

data_452820
_audit_creation_date                     2017-12-01
_audit_creation_method
;
Pearson's Crystal Data browser
;
#_database_code_PCD                      452820

# Entry summary

_chemical_formula_structural             'Ir~4~ Si~5~'
_chemical_formula_sum                    'Ir4 Si5'
_chemical_name_mineral                   ?
_chemical_compound_source                ?
_chemical_name_structure_type            Rh~4~Si~5~,mP18,11
_chemical_formula_weight                 909.3

# Bibliographic data

_publ_section_title
'X-Ray Studies of Silicon-rich Iridium Silicides'                             
_journal_coden_ASTM                      ACSAA4
_journal_name_full                       'Acta Chem. Scand.'
_journal_year                            1970
_journal_volume                          24
_journal_page_first                      2109
_journal_page_last                       2116
_journal_language                        English
loop_
 _publ_author_name
 _publ_author_address
'Engstr\"om I.'
;
Uppsala University
Institute of Chemistry
Uppsala
Sweden
;
'Zackrisson F.'
;
Uppsala University
Institute of Chemistry
Uppsala
Sweden
;

# Standardized crystallographic data

_cell_length_a                           5.8805
_cell_length_b                           3.6181
_cell_length_c                           12.359
_cell_angle_alpha                        90
_cell_angle_beta                         100.14
_cell_angle_gamma                        90
_cell_volume                             258.85
_cell_formula_units_Z                    2
_space_group_IT_number                   11
_space_group_name_H-M_alt                'P 1 21/m 1'
loop_
 _space_group_symop_id
 _space_group_symop_operation_xyz
 1 'x, y, z'
 2 '-x, -y, -z'
 3 '-x, 1/2+y, -z'
 4 'x, 1/2-y, z'

# Atomic positions taken from type-defining entry

loop_
 _atom_type_symbol
 Si
 Ir
loop_
 _atom_site_label
 _atom_site_type_symbol
 _atom_site_symmetry_multiplicity
 _atom_site_Wyckoff_symbol
 _atom_site_fract_x
 _atom_site_fract_y
 _atom_site_fract_z
 _atom_site_occupancy
 Si1 Si 2 e 0.01875 0.25 0.35822 1
 Ir1 Ir 2 e 0.10782 0.25 0.77354 1
 Ir2 Ir 2 e 0.20598 0.25 0.55022 1
 Ir3 Ir 2 e 0.28419 0.25 0.22970 1
 Ir4 Ir 2 e 0.30142 0.25 0.00051 1
 Si2 Si 2 e 0.46715 0.25 0.72434 1
 Si3 Si 2 e 0.48526 0.25 0.42243 1
 Si4 Si 2 e 0.63951 0.25 0.13625 1
 Si5 Si 2 e 0.89332 0.25 0.92151 1


_exptl_crystal_colour                    ?
_exptl_crystal_density_meas              ?
_exptl_crystal_density_diffrn            11.67
_cell_measurement_temperature            ?
_cell_measurement_radiation              'X-rays, Cr Ka1, Cu Ka1'
_cell_measurement_reflns_used            ?
_diffrn_ambient_temperature              ?
_diffrn_measurement_device               'Guinier-Haegg film'
_diffrn_measurement_device_type          ?
_diffrn_radiation_type                   ?
_diffrn_reflns_number                    ?
_exptl_absorpt_coefficient_mu            ?
_exptl_absorpt_correction_type           ?
_computing_structure_solution            ?
_refine_ls_number_parameters             ?
_refine_ls_number_reflns                 ?
_refine_ls_R_factor_gt                   ?
_refine_ls_wR_factor_gt                  ?

# End of data set 452820


