##############################################################################
#                                                                            #
# As-Ir            # IrAs2                                         #  529863 #
#                                                                            #
##############################################################################
#                                                                            #
#                           Pearson's Crystal Data                           #
#      Crystal Structure Database for Inorganic Compounds (on DVD)           #
#                              Release 2017/18                               #
#                  Editors: Pierre Villars and Karin Cenzual                 #
#                                                                            #
#   Copyright (c) ASM International & Material Phases Data System (MPDS),    #
# Switzerland & National Institute for Materials Science (NIMS), Japan, 2017 #
#                   All rights reserved. Version 2017.08                     #
#                                                                            #
#   This copy of Pearson's Crystal Data is licensed to:                      #
#   University of Alberta, Chemistry Department, 1-5 Installations License         #
#                                                                            #
##############################################################################

data_529863
_audit_creation_date                     2017-12-01
_audit_creation_method
;
Pearson's Crystal Data browser
;
#_database_code_PCD                      529863

# Entry summary

_chemical_formula_structural             'Ir As~2~'
_chemical_formula_sum                    'As2 Ir'
_chemical_name_mineral                   iridarsenite
_chemical_compound_source                'Papua New Guinea'
_chemical_name_structure_type            CoSb~2~,mP12,14
_chemical_formula_weight                 342.1

# Bibliographic data

_publ_section_title
;
Ruthenarsenite and iridarsenite, two new minerals from the Territory of Papua and New Guinea and associated irarsite, laurite and cubic iron-bearing platinum
;
_journal_coden_ASTM                      CAMIA6
_journal_name_full                       'Can. Mineral.'
_journal_year                            1974
_journal_volume                          12
_journal_page_first                      280
_journal_page_last                       284
_journal_language                        English
loop_
 _publ_author_name
 _publ_author_address
'Harris D.C.'
;
Ottawa University
Mineral Science Division
Ottawa
Canada
;

# Standardized crystallographic data

_cell_length_a                           6.05
_cell_length_b                           6.06
_cell_length_c                           6.18
_cell_angle_alpha                        90
_cell_angle_beta                         113.28
_cell_angle_gamma                        90
_cell_volume                             208.13
_cell_formula_units_Z                    4
_space_group_IT_number                   14
_space_group_name_H-M_alt                'P 1 21/c 1'
loop_
 _space_group_symop_id
 _space_group_symop_operation_xyz
 1 'x, y, z'
 2 '-x, -y, -z'
 3 '-x, 1/2+y, 1/2-z'
 4 'x, 1/2-y, 1/2+z'

# Atomic positions taken from type-defining entry

loop_
 _atom_type_symbol
 As
 Ir
loop_
 _atom_site_label
 _atom_site_type_symbol
 _atom_site_symmetry_multiplicity
 _atom_site_Wyckoff_symbol
 _atom_site_fract_x
 _atom_site_fract_y
 _atom_site_fract_z
 _atom_site_occupancy
 As1 As 4 e 0.1534 0.6431 0.3325 1
 Ir1 Ir 4 e 0.2299 0.0005 0.2183 1
 As2 As 4 e 0.3511 0.3607 0.1329 1


_exptl_crystal_colour                    ?
_exptl_crystal_density_meas              ?
_exptl_crystal_density_diffrn            10.92
_cell_measurement_temperature            ?
_cell_measurement_radiation              ?
_cell_measurement_reflns_used            ?
_diffrn_ambient_temperature              ?
_diffrn_measurement_device               'Debye-Scherrer film'
_diffrn_measurement_device_type          ?
_diffrn_radiation_type                   ?
_diffrn_reflns_number                    ?
_exptl_absorpt_coefficient_mu            ?
_exptl_absorpt_correction_type           ?
_computing_structure_solution            ?
_refine_ls_number_parameters             ?
_refine_ls_number_reflns                 ?
_refine_ls_R_factor_gt                   ?
_refine_ls_wR_factor_gt                  ?

# Published diffraction lines

loop_
 _refln_index_h
 _refln_index_k
 _refln_index_l
 _refln_d_spacing
 _refln_intensity_meas
 0 1 -1 41.6 2
 1 1 -1 39 10
 1 0 -2 30.7 4
 0 0 -2 28.4 7
 1 2 -1 26.1 5
 2 0 -2 25.49 2
 2 1 0 25.31 1
 2 1 -2 23.54 1
 1 0 2 22 1
 1 2 -2 21.54 1
 0 2 -2 20.69 6
 3 0 -2 19.43 4
 3 1 -1 19.1 5
 1 3 -1 18.75 4
 0 1 3 18.07 1
 1 2 2 17.66 1
 1 3 1 17.32 4
 2 0 2 16.82 2
 0 3 2 16.45 1
 0 2 -3 15.9 1
 2 4 -2 13.04 2
 1 0 4 12.62 1
 0 5 1 11.85 2
 1 2 4 11.65 2
 4 3 0 11.44 1
 3 0 3 11.21 2
 4 1 2 10.73 1

# End of data set 529863


