##############################################################################
#                                                                            #
# Cl-Ir            # IrCl3 mon                                     #  541874 #
#                                                                            #
##############################################################################
#                                                                            #
#                           Pearson's Crystal Data                           #
#      Crystal Structure Database for Inorganic Compounds (on DVD)           #
#                              Release 2017/18                               #
#                  Editors: Pierre Villars and Karin Cenzual                 #
#                                                                            #
#   Copyright (c) ASM International & Material Phases Data System (MPDS),    #
# Switzerland & National Institute for Materials Science (NIMS), Japan, 2017 #
#                   All rights reserved. Version 2017.08                     #
#                                                                            #
#   This copy of Pearson's Crystal Data is licensed to:                      #
#   University of Alberta, Chemistry Department, 1-5 Installations License         #
#                                                                            #
##############################################################################

data_541874
_audit_creation_date                     2017-12-04
_audit_creation_method
;
Pearson's Crystal Data browser
;
#_database_code_PCD                      541874

# Entry summary

_chemical_formula_structural             'Ir Cl~3~'
_chemical_formula_sum                    'Cl3 Ir'
_chemical_name_mineral                   ?
_chemical_compound_source                ?
_chemical_name_structure_type            AlCl~3~,mS16,12
_chemical_formula_weight                 298.6

# Bibliographic data

_publ_section_title
'Zur Struktur des Iridium(III)- und des Ruthenium(III)-chlorids'              
_journal_coden_ASTM                      NATWAY
_journal_name_full                       Naturwissenschaften
_journal_year                            1965
_journal_volume                          52
_journal_page_first                      205
_journal_page_last                       206
_journal_language                        German
loop_
 _publ_author_name
 _publ_author_address
'Brodersen K.'
;
Erlangen University
Institut f\"ur Anorganische Chemie
Erlangen
Germany
;
'Moers F.'
;
Erlangen University
Institut f\"ur Anorganische Chemie
Erlangen
Germany
;
'Schnering H.G.'
;
Erlangen University
Institut f\"ur Anorganische Chemie
Erlangen
Germany
;

# Standardized crystallographic data

_cell_length_a                           5.99
_cell_length_b                           10.37
_cell_length_c                           5.99
_cell_angle_alpha                        90
_cell_angle_beta                         109.4
_cell_angle_gamma                        90
_cell_volume                             350.95
_cell_formula_units_Z                    4
_space_group_IT_number                   12
_space_group_name_H-M_alt                'C 1 2/m 1'
loop_
 _space_group_symop_id
 _space_group_symop_operation_xyz
 1 'x, y, z'
 2 '-x, -y, -z'
 3 '-x, y, -z'
 4 'x, -y, z'
 5 '1/2+x, 1/2+y, z'
 6 '1/2-x, 1/2-y, -z'
 7 '1/2-x, 1/2+y, -z'
 8 '1/2+x, 1/2-y, z'
loop_
 _atom_type_symbol
 Cl
 Ir
loop_
 _atom_site_label
 _atom_site_type_symbol
 _atom_site_symmetry_multiplicity
 _atom_site_Wyckoff_symbol
 _atom_site_fract_x
 _atom_site_fract_y
 _atom_site_fract_z
 _atom_site_occupancy
 Cl2 Cl 8 j 0.251 0.324 0.221 1
 Cl1 Cl 4 i 0.227 0 0.248 1
 Ir Ir 4 g 0 0.167 0 1


_exptl_crystal_colour                    'brown honey'
_exptl_crystal_density_meas              ?
_exptl_crystal_density_diffrn            5.65
_cell_measurement_temperature            ?
_cell_measurement_radiation              X-rays
_cell_measurement_reflns_used            ?
_diffrn_ambient_temperature              ?
_diffrn_measurement_device               photographs
_diffrn_measurement_device_type          ?
_diffrn_radiation_type                   X-rays
_diffrn_reflns_number                    ?
_exptl_absorpt_coefficient_mu            ?
_exptl_absorpt_correction_type           ?
_computing_structure_solution            'Patterson and Fourier synthesis'
_refine_ls_number_parameters             ?
_refine_ls_number_reflns                 ?
_refine_ls_R_factor_gt                   0.095
_refine_ls_wR_factor_gt                  ?

# End of data set 541874


