##############################################################################
#                                                                            #
# Ir-Sb            # IrSb2                                         #  457858 #
#                                                                            #
##############################################################################
#                                                                            #
#                           Pearson's Crystal Data                           #
#      Crystal Structure Database for Inorganic Compounds (on DVD)           #
#                              Release 2017/18                               #
#                  Editors: Pierre Villars and Karin Cenzual                 #
#                                                                            #
#   Copyright (c) ASM International & Material Phases Data System (MPDS),    #
# Switzerland & National Institute for Materials Science (NIMS), Japan, 2017 #
#                   All rights reserved. Version 2017.08                     #
#                                                                            #
#   This copy of Pearson's Crystal Data is licensed to:                      #
#   University of Alberta, Chemistry Department, 1-5 Installations License         #
#                                                                            #
##############################################################################

data_457858
_audit_creation_date                     2017-12-01
_audit_creation_method
;
Pearson's Crystal Data browser
;
#_database_code_PCD                      457858

# Entry summary

_chemical_formula_structural             'Ir Sb~2~'
_chemical_formula_sum                    'Ir Sb2'
_chemical_name_mineral                   ?
_chemical_compound_source                ?
_chemical_name_structure_type            CoSb~2~,mP12,14
_chemical_formula_weight                 435.7

# Bibliographic data

_publ_section_title
;
Structures of compounds in the MSb~2~ group: CoSb~2~, RhSb~2~, IrSb~2~, and \a-RhBi~2~
;
_journal_coden_ASTM                      SPHCA6
_journal_name_full                       'Sov. Phys. Crystallogr.'
_journal_year                            1962
_journal_volume                          6
_journal_page_first                      704
_journal_page_last                       711
_journal_language                        English
loop_
 _publ_author_name
 _publ_author_address
'Zhdanov G.S.'
;
Moscow M.V. Lomonosov State University
Moscow
Russia
;
'Kuz'min R.N.'
;
Moscow M.V. Lomonosov State University
Moscow
Russia
;

# Standardized crystallographic data

_cell_length_a                           6.58
_cell_length_b                           6.53
_cell_length_c                           6.68
_cell_angle_alpha                        90
_cell_angle_beta                         115.5
_cell_angle_gamma                        90
_cell_volume                             259.06
_cell_formula_units_Z                    4
_space_group_IT_number                   14
_space_group_name_H-M_alt                'P 1 21/c 1'
loop_
 _space_group_symop_id
 _space_group_symop_operation_xyz
 1 'x, y, z'
 2 '-x, -y, -z'
 3 '-x, 1/2+y, 1/2-z'
 4 'x, 1/2-y, 1/2+z'
loop_
 _atom_type_symbol
 Sb
 Ir
loop_
 _atom_site_label
 _atom_site_type_symbol
 _atom_site_symmetry_multiplicity
 _atom_site_Wyckoff_symbol
 _atom_site_fract_x
 _atom_site_fract_y
 _atom_site_fract_z
 _atom_site_occupancy
 SbI Sb 4 e 0.152 0.64 0.325 1
 Ir Ir 4 e 0.22 0.0 0.209 1
 SbII Sb 4 e 0.343 0.371 0.126 1


_exptl_crystal_colour                    ?
_exptl_crystal_density_meas              10.9
_exptl_crystal_density_diffrn            11.17
_cell_measurement_temperature            ?
_cell_measurement_radiation              'X-rays, Mo K'
_cell_measurement_reflns_used            ?
_diffrn_ambient_temperature              ?
_diffrn_measurement_device               photographs
_diffrn_measurement_device_type          ?
_diffrn_radiation_type                   'X-rays, Mo K'
_diffrn_reflns_number                    ?
_exptl_absorpt_coefficient_mu            ?
_exptl_absorpt_correction_type           ?
_computing_structure_solution            'starting values from the literature'
_refine_ls_number_parameters             ?
_refine_ls_number_reflns                 ?
_refine_ls_R_factor_gt                   0.155
_refine_ls_wR_factor_gt                  ?

# End of data set 457858


