##############################################################################
#                                                                            #
# Ir-Sn            # IrSn                                          #  261157 #
#                                                                            #
##############################################################################
#                                                                            #
#                           Pearson's Crystal Data                           #
#      Crystal Structure Database for Inorganic Compounds (on DVD)           #
#                              Release 2017/18                               #
#                  Editors: Pierre Villars and Karin Cenzual                 #
#                                                                            #
#   Copyright (c) ASM International & Material Phases Data System (MPDS),    #
# Switzerland & National Institute for Materials Science (NIMS), Japan, 2017 #
#                   All rights reserved. Version 2017.08                     #
#                                                                            #
#   This copy of Pearson's Crystal Data is licensed to:                      #
#   University of Alberta, Chemistry Department, 1-5 Installations License         #
#                                                                            #
##############################################################################

data_261157
_audit_creation_date                     2017-12-01
_audit_creation_method
;
Pearson's Crystal Data browser
;
#_database_code_PCD                      261157

# Entry summary

_chemical_formula_structural             'Ir Sn'
_chemical_formula_sum                    'Ir Sn'
_chemical_name_mineral                   ?
_chemical_compound_source                ?
_chemical_name_structure_type            NiAs,hP4,194
_chemical_formula_weight                 310.9

# Bibliographic data

_publ_section_title
;
Zur Kenntnis des Aufbaus und der Kristallchemie einiger Edelmetallsysteme (Palladium-Blei, Palladium-Zinn, Iridium-Zinn, Rhodium-Zinn, Platin-Blei)
;
_journal_coden_ASTM                      MEFGAZ
_journal_name_full                       Metallforschung
_journal_year                            1946
_journal_volume                          1
_journal_page_first                      137
_journal_page_last                       145
_journal_language                        German
loop_
 _publ_author_name
 _publ_author_address
'Nowotny H.'
;
Stuttgart Technical University
Kaiser-Wilhelm Institut f\"ur Metallforschung
Stuttgart
Germany
;
'Schubert K.'
;
Max Planck Society
Kaiser-Wilhelm Institut f\"ur Metallforschung
Stuttgart
Germany
;
'Dettinger U.'
;
Max Planck Society
Kaiser-Wilhelm Institut f\"ur Metallforschung
Stuttgart
Germany
;

# Standardized crystallographic data

_cell_length_a                           3.98
_cell_length_b                           3.98
_cell_length_c                           5.556
_cell_angle_alpha                        90
_cell_angle_beta                         90
_cell_angle_gamma                        120
_cell_volume                             76.22
_cell_formula_units_Z                    2
_space_group_IT_number                   194
_space_group_name_H-M_alt                'P 63/m m c'
loop_
 _space_group_symop_id
 _space_group_symop_operation_xyz
 1 'x, y, z'
 2 '-x+y, -x, 1/2-z'
 3 '-x+y, -x, z'
 4 '-x+y, y, 1/2-z'
 5 '-x+y, y, z'
 6 '-x, -x+y, -z'
 7 '-x, -x+y, 1/2+z'
 8 '-x, -y, -z'
 9 '-x, -y, 1/2+z'
 10 '-y, -x, 1/2-z'
 11 '-y, -x, z'
 12 '-y, x-y, 1/2-z'
 13 '-y, x-y, z'
 14 'x, x-y, 1/2-z'
 15 'x, x-y, z'
 16 'x, y, 1/2-z'
 17 'x-y, -y, -z'
 18 'x-y, -y, 1/2+z'
 19 'x-y, x, -z'
 20 'x-y, x, 1/2+z'
 21 'y, -x+y, -z'
 22 'y, -x+y, 1/2+z'
 23 'y, x, -z'
 24 'y, x, 1/2+z'
loop_
 _atom_type_symbol
 Sn
 Ir
loop_
 _atom_site_label
 _atom_site_type_symbol
 _atom_site_symmetry_multiplicity
 _atom_site_Wyckoff_symbol
 _atom_site_fract_x
 _atom_site_fract_y
 _atom_site_fract_z
 _atom_site_occupancy
 Sn Sn 2 c 0.333333 0.666667 0.25 1
 Ir Ir 2 a 0 0 0 1


_exptl_crystal_colour                    ?
_exptl_crystal_density_meas              13.1
_exptl_crystal_density_diffrn            13.55
_cell_measurement_temperature            ?
_cell_measurement_radiation              'X-rays, Cu Ka'
_cell_measurement_reflns_used            ?
_diffrn_ambient_temperature              ?
_diffrn_measurement_device               ?
_diffrn_measurement_device_type          ?
_diffrn_radiation_type                   ?
_diffrn_reflns_number                    ?
_exptl_absorpt_coefficient_mu            ?
_exptl_absorpt_correction_type           ?
_computing_structure_solution            ?
_refine_ls_number_parameters             ?
_refine_ls_number_reflns                 ?
_refine_ls_R_factor_gt                   ?
_refine_ls_wR_factor_gt                  ?

# Published diffraction lines

loop_
 _refln_index_h
 _refln_index_k
 _refln_index_l
 _refln_d_spacing
 _refln_intensity_meas
 1 0 0 0.521 4
 1 0 1 0.714 4.3
 1 0 2 1.296 7
 1 1 0 1.514 6
 2 0 0 1.991 2
 2 0 1 2.19 3
 1 0 3 2.262 3
 2 0 2 2.792 5
 0 0 4 3.095 3
 2 1 0 3.488 2
 1 0 4 3.588 2
 2 0 3 3.74 3
 2 1 2 4.287 5
 3 0 0 4.495 8
 1 1 4 4.599 4
 2 0 4 5.087 2
 2 1 3 5.227 2
 1 0 5 5.314 2
 2 2 0 5.988 3
 3 1 0 6.479 4
 2 1 4 6.562 3
 3 1 1 6.614 2
 2 2 2 6.808 2
 3 1 2 7.239 5
 1 0 6 7.393 4
 3 0 4 7.53 4
 4 0 2 8.727 4
 2 0 6 8.875 4
 2 2 4 9.024 5
 3 1 4 9.517 2.5
 3 2 1 9.668 8

# End of data set 261157


