##############################################################################
#                                                                            #
# K-Mo-O           # K2[MoO4] rt                                   # 1501577 #
#                                                                            #
##############################################################################
#                                                                            #
#                           Pearson's Crystal Data                           #
#      Crystal Structure Database for Inorganic Compounds (on DVD)           #
#                              Release 2017/18                               #
#                  Editors: Pierre Villars and Karin Cenzual                 #
#                                                                            #
#   Copyright (c) ASM International & Material Phases Data System (MPDS),    #
# Switzerland & National Institute for Materials Science (NIMS), Japan, 2017 #
#                   All rights reserved. Version 2017.08                     #
#                                                                            #
#   This copy of Pearson's Crystal Data is licensed to:                      #
#   University of Alberta, Chemistry Department, 1-5 Installations License         #
#                                                                            #
##############################################################################

data_1501577
_audit_creation_date                     2017-12-05
_audit_creation_method
;
Pearson's Crystal Data browser
;
#_database_code_PCD                      1501577

# Entry summary

_chemical_formula_structural             'K~2~ [Mo O~4~]'
_chemical_formula_sum                    'K2 Mo O4'
_chemical_name_mineral                   ?
_chemical_compound_source                ?
_chemical_name_structure_type            K~2~[MoO~4~],mS28,12
_chemical_formula_weight                 238.1

# Bibliographic data

_publ_section_title
'The Structures of Potassium, Rubidium and Caesium Molybdate and Tungstate'   
_journal_coden_ASTM                      ACBCAR
_journal_name_full                       'Acta Crystallogr. B'
_journal_year                            1970
_journal_volume                          26
_journal_page_first                      1974
_journal_page_last                       1977
_journal_language                        English
loop_
 _publ_author_name
 _publ_author_address
'Kools F.X.N.M.'
;
Eindhoven University of Technology
Laboratory of Physical Chemistry
Eindhoven
Netherlands
;
'Koster A.S.'
;
Eindhoven University of Technology
Laboratory of Physical Chemistry
Eindhoven
Netherlands
;
'Rieck G.D.'
;
Eindhoven University of Technology
Laboratory of Physical Chemistry
Eindhoven
Netherlands
;

# Standardized crystallographic data

_cell_length_a                           12.345
_cell_length_b                           6.078
_cell_length_c                           7.535
_cell_angle_alpha                        90
_cell_angle_beta                         115.73
_cell_angle_gamma                        90
_cell_volume                             509.3
_cell_formula_units_Z                    4
_space_group_IT_number                   12
_space_group_name_H-M_alt                'C 1 2/m 1'
loop_
 _space_group_symop_id
 _space_group_symop_operation_xyz
 1 'x, y, z'
 2 '-x, -y, -z'
 3 '-x, y, -z'
 4 'x, -y, z'
 5 '1/2+x, 1/2+y, z'
 6 '1/2-x, 1/2-y, -z'
 7 '1/2-x, 1/2+y, -z'
 8 '1/2+x, 1/2-y, z'

# Atomic positions taken from type-defining entry

loop_
 _atom_type_symbol
 O
 K
 Mo
loop_
 _atom_site_label
 _atom_site_type_symbol
 _atom_site_symmetry_multiplicity
 _atom_site_Wyckoff_symbol
 _atom_site_fract_x
 _atom_site_fract_y
 _atom_site_fract_z
 _atom_site_occupancy
 O1 O 8 j 0.143 0.2334 0.0785 1
 O2 O 4 i 0.0878 0 0.3618 1
 K1 K 4 i 0.1547 0 0.745 1
 Mo1 Mo 4 i 0.17558 0 0.22671 1
 O3 O 4 i 0.3333 0 0.3824 1
 K2 K 4 i 0.5094 0 0.2352 1


_exptl_crystal_colour                    ?
_exptl_crystal_density_meas              ?
_exptl_crystal_density_diffrn            3.11
_cell_measurement_temperature            298
_cell_measurement_radiation              'X-rays, Cu Ka'
_cell_measurement_reflns_used            40
_diffrn_ambient_temperature              ?
_diffrn_measurement_device               'automatic diffractometer'
_diffrn_measurement_device_type          ?
_diffrn_radiation_type                   ?
_diffrn_reflns_number                    ?
_exptl_absorpt_coefficient_mu            ?
_exptl_absorpt_correction_type           ?
_computing_structure_solution            ?
_refine_ls_number_parameters             ?
_refine_ls_number_reflns                 ?
_refine_ls_R_factor_gt                   ?
_refine_ls_wR_factor_gt                  ?

# Published diffraction lines

loop_
 _refln_index_h
 _refln_index_k
 _refln_index_l
 _refln_d_spacing
 _refln_intensity_meas
 0 0 1 67.9 4
 -2 0 1 56.8 21
 2 0 0 55.6 12
 1 1 0 53.3 14
 -1 1 1 47 45
 1 1 1 38.2 25
 -2 0 2 37 11
 2 0 1 36 12
 0 0 2 33.94 53
 3 1 0 31.65 100
 -4 0 1 30.85 5
 0 2 0 30.39 55
 -3 1 2 29.15 65
 -4 0 2 28.38 6
 4 0 0 27.8 10
 -2 2 1 26.79 5
 -3 1 3 22.84 9
 0 2 2 22.64 52
 -5 1 2 22.31 6
 -6 0 2 20.42 21
 3 1 2 19.78 30
 -6 0 3 18.92 5
 1 3 1 18.73 4
 6 0 0 18.54 14
 -3 1 4 17.99 15
 3 3 0 17.78 17
 -3 3 2 17.3 14
 -6 2 2 16.95 19

# End of data set 1501577


