##############################################################################
#                                                                            #
# Au-K-P-S         # K2AuPS4                                       # 1520424 #
#                                                                            #
##############################################################################
#                                                                            #
#                           Pearson's Crystal Data                           #
#      Crystal Structure Database for Inorganic Compounds (on DVD)           #
#                              Release 2017/18                               #
#                  Editors: Pierre Villars and Karin Cenzual                 #
#                                                                            #
#   Copyright (c) ASM International & Material Phases Data System (MPDS),    #
# Switzerland & National Institute for Materials Science (NIMS), Japan, 2017 #
#                   All rights reserved. Version 2017.08                     #
#                                                                            #
#   This copy of Pearson's Crystal Data is licensed to:                      #
#   University of Alberta, Chemistry Department, 1-5 Installations License         #
#                                                                            #
##############################################################################

data_1520424
_audit_creation_date                     2017-12-05
_audit_creation_method
;
Pearson's Crystal Data browser
;
#_database_code_PCD                      1520424

# Entry summary

_chemical_formula_structural             'K~2~ Au P S~4~'
_chemical_formula_sum                    'Au K2 P S4'
_chemical_name_mineral                   ?
_chemical_compound_source                ?
_chemical_name_structure_type            K~2~AuPS~4~,mP16,11
_chemical_formula_weight                 434.4

# Bibliographic data

_publ_section_title
;
K~2~AuPS~4~, Tl~2~AuPS~4~, K~2~AuAsS~4~, KAu~5~P~2~S~8~: Syntheses, Structures, and Properties of Quaternary Gold Thiophosphate and Thioarsenate Compounds
;
_journal_coden_ASTM                      EJICFO
_journal_name_full                       'Eur. J. Inorg. Chem.'
_journal_year                            1998
_journal_volume                          ?
_journal_page_first                      283
_journal_page_last                       289
_journal_language                        English
loop_
 _publ_author_name
 _publ_author_address
'L\"oken S.'
;
Mainz Johannes Gutenberg University
Institut f\"ur Anorganische und Analytische Chemie
Mainz
Germany
;
'Tremel W.'
;
Mainz Johannes Gutenberg University
Institut f\"ur Anorganische und Analytische Chemie
Mainz
Germany
;

# Standardized crystallographic data

_cell_length_a                           6.497
_cell_length_b                           6.727
_cell_length_c                           9.434
_cell_angle_alpha                        90
_cell_angle_beta                         92.69
_cell_angle_gamma                        90
_cell_volume                             411.9
_cell_formula_units_Z                    2
_space_group_IT_number                   11
_space_group_name_H-M_alt                'P 1 21/m 1'
loop_
 _space_group_symop_id
 _space_group_symop_operation_xyz
 1 'x, y, z'
 2 '-x, -y, -z'
 3 '-x, 1/2+y, -z'
 4 'x, 1/2-y, z'
loop_
 _atom_type_symbol
 S
 P
 K
 Au
loop_
 _atom_site_label
 _atom_site_type_symbol
 _atom_site_symmetry_multiplicity
 _atom_site_Wyckoff_symbol
 _atom_site_fract_x
 _atom_site_fract_y
 _atom_site_fract_z
 _atom_site_occupancy
 S1 S 4 f 0.0939 0.5054 0.2378 1
 P P 2 e 0.2669 0.25 0.2804 1
 S3 S 2 e 0.307 0.25 0.4939 1
 K2 K 2 e 0.457 0.25 0.8346 1
 S2 S 2 e 0.528 0.25 0.1738 1
 K1 K 2 e 0.7959 0.25 0.4641 1
 Au Au 2 a 0 0 0 1


_exptl_crystal_colour                    yellow
_exptl_crystal_density_meas              ?
_exptl_crystal_density_diffrn            3.50
_cell_measurement_temperature            203
_cell_measurement_radiation              'X-rays, Mo Ka'
_cell_measurement_wavelength             0.71073
_cell_measurement_reflns_used            ?
_diffrn_ambient_temperature              203
_diffrn_measurement_device               'automatic diffractometer'
_diffrn_measurement_device_type          'Siemens P4'
_diffrn_radiation_type                   'X-rays, Mo Ka'
_diffrn_radiation_wavelength             0.71073
_diffrn_reflns_number                    2148
_diffrn_reflns_theta_min                 4
_diffrn_reflns_theta_max                 54
_exptl_absorpt_coefficient_mu            19.975
_exptl_absorpt_correction_type           semi-empirical
_computing_structure_solution            'direct methods'
_refine_ls_number_parameters             47
_refine_ls_number_reflns                 696
_refine_ls_R_factor_gt                   0.0291
_refine_ls_wR_factor_gt                  0.0627

# End of data set 1520424


