##############################################################################
#                                                                            #
# Cd-K-N           # K2Cd[N3]4                                     #  462296 #
#                                                                            #
##############################################################################
#                                                                            #
#                           Pearson's Crystal Data                           #
#      Crystal Structure Database for Inorganic Compounds (on DVD)           #
#                              Release 2017/18                               #
#                  Editors: Pierre Villars and Karin Cenzual                 #
#                                                                            #
#   Copyright (c) ASM International & Material Phases Data System (MPDS),    #
# Switzerland & National Institute for Materials Science (NIMS), Japan, 2017 #
#                   All rights reserved. Version 2017.08                     #
#                                                                            #
#   This copy of Pearson's Crystal Data is licensed to:                      #
#   University of Alberta, Chemistry Department, 1-5 Installations License         #
#                                                                            #
##############################################################################

data_462296
_audit_creation_date                     2017-12-01
_audit_creation_method
;
Pearson's Crystal Data browser
;
#_database_code_PCD                      462296

# Entry summary

_chemical_formula_structural             'K~2~ Cd [N~3~]~4~'
_chemical_formula_sum                    'Cd K2 N12'
_chemical_name_mineral                   ?
_chemical_compound_source                ?
_chemical_name_structure_type            K~2~Cd[N~3~]~4~,mS30,12
_chemical_formula_weight                 358.7
_chemical_melting_point                  509(3)

# Bibliographic data

_publ_section_title
;
Darstellung, R\"ontgen-Pulverdaten und Gitterkonstanten von K~2~Cd(N~3~)~4~ und Tl~2~Cd(N~3~)~4~
;
_journal_coden_ASTM                      ZAACAB
_journal_name_full                       'Z. Anorg. Allg. Chem.'
_journal_year                            1980
_journal_volume                          463
_journal_page_first                      75
_journal_page_last                       77
_journal_language                        German
loop_
 _publ_author_name
 _publ_author_address
'Haselmair H.'
;
Graz Technical University
Institut f\"ur Physikalische und Theoretische Chemie
Graz
Austria
;
'Krischner H.'
;
Graz Technical University
Institut f\"ur Physikalische und Theoretische Chemie
Graz
Austria
;

# Standardized crystallographic data

_cell_length_a                           14.254
_cell_length_b                           3.785
_cell_length_c                           8.883
_cell_angle_alpha                        90
_cell_angle_beta                         92.9
_cell_angle_gamma                        90
_cell_volume                             478.6
_cell_formula_units_Z                    2
_space_group_IT_number                   12
_space_group_name_H-M_alt                'C 1 2/m 1'
loop_
 _space_group_symop_id
 _space_group_symop_operation_xyz
 1 'x, y, z'
 2 '-x, -y, -z'
 3 '-x, y, -z'
 4 'x, -y, z'
 5 '1/2+x, 1/2+y, z'
 6 '1/2-x, 1/2-y, -z'
 7 '1/2-x, 1/2+y, -z'
 8 '1/2+x, 1/2-y, z'

# Atomic positions taken from type-defining entry

loop_
 _atom_type_symbol
 N
 K
 Cd
loop_
 _atom_site_label
 _atom_site_type_symbol
 _atom_site_symmetry_multiplicity
 _atom_site_Wyckoff_symbol
 _atom_site_fract_x
 _atom_site_fract_y
 _atom_site_fract_z
 _atom_site_occupancy
 N1 N 4 i 0.0 0 0.2622 1
 N2 N 4 i 0.068 0 0.3445 1
 N3 N 4 i 0.133 0 0.4298 1
 K1 K 4 i 0.347 0 0.3255 1
 N4 N 4 i 0.6021 0 0.0033 1
 N5 N 4 i 0.6723 0 0.0835 1
 N6 N 4 i 0.7407 0 0.1569 1
 Cd1 Cd 2 a 0 0 0 1


_exptl_crystal_colour                    colorless
_exptl_crystal_density_meas              ?
_exptl_crystal_density_diffrn            2.49
_cell_measurement_temperature            ?
_cell_measurement_radiation              'X-rays, Cu Ka'
_cell_measurement_reflns_used            ?
_diffrn_ambient_temperature              ?
_diffrn_measurement_device               'automatic diffractometer'
_diffrn_measurement_device_type          ?
_diffrn_radiation_type                   ?
_diffrn_reflns_number                    ?
_exptl_absorpt_coefficient_mu            ?
_exptl_absorpt_correction_type           ?
_computing_structure_solution            ?
_refine_ls_number_parameters             ?
_refine_ls_number_reflns                 ?
_refine_ls_R_factor_gt                   ?
_refine_ls_wR_factor_gt                  ?

# Published diffraction lines

loop_
 _refln_index_h
 _refln_index_k
 _refln_index_l
 _refln_d_spacing
 _refln_intensity_meas
 0 0 1 88.58 50
 2 0 0 71.17 30
 2 0 -1 56.9 30
 2 0 1 54.19 35
 0 0 2 44.82 13
 2 0 -2 38.51 40
 1 1 0 36.56 36
 4 0 0 35.57 3
 1 1 -1 33.96 55
 1 1 1 33.62 48
 4 0 1 32.46 10
 0 0 3 29.58 100
 3 1 -1 28.32 70
 1 1 2 28.03 40
 2 0 -3 27.81 25
 4 0 2 27.1 10
 2 0 3 26.83 5
 3 1 2 24.26 5
 6 0 0 23.73 4
 6 0 -1 23.19 12
 1 1 3 22.83 40
 5 1 0 22.75 38
 0 0 4 22.18 30
 5 1 1 21.83 20
 3 1 -3 21.25 100
 2 0 4 20.87 50
 5 1 -2 20.59 20
 4 0 -4 19.25 6
 1 1 -4 19.07 10
 0 2 0 18.93 15
 0 2 1 18.5 11
 5 1 -3 18.39 10
 6 0 3 18.07 10
 2 2 1 17.87 10
 0 0 5 17.74 14
 2 0 -5 17.42 8
 2 2 -2 16.98 12
 4 2 -1 16.49 10
 4 2 1 16.35 10
 5 1 -4 16.21 10
 5 1 4 15.57 10
 0 0 6 14.79 16

# End of data set 462296


