##############################################################################
#                                                                            #
# Cu-H-K-O-S       # K2Cu[SO4]2[H2O]6                              #  381592 #
#                                                                            #
##############################################################################
#                                                                            #
#                           Pearson's Crystal Data                           #
#      Crystal Structure Database for Inorganic Compounds (on DVD)           #
#                              Release 2017/18                               #
#                  Editors: Pierre Villars and Karin Cenzual                 #
#                                                                            #
#   Copyright (c) ASM International & Material Phases Data System (MPDS),    #
# Switzerland & National Institute for Materials Science (NIMS), Japan, 2017 #
#                   All rights reserved. Version 2017.08                     #
#                                                                            #
#   This copy of Pearson's Crystal Data is licensed to:                      #
#   University of Alberta, Chemistry Department, 1-5 Installations License         #
#                                                                            #
##############################################################################

data_381592
_audit_creation_date                     2017-12-01
_audit_creation_method
;
Pearson's Crystal Data browser
;
#_database_code_PCD                      381592

# Entry summary

_chemical_formula_structural             'K~2~ Cu [S O~4~]~2~ [H~2~ O]~6~'
_chemical_formula_sum                    'Cu H12 K2 O14 S2'
_chemical_name_mineral                   cyanochroite
_chemical_compound_source                ?
_chemical_name_structure_type
[NH~4~]~2~Mg[SO~4~]~2~[H~2~O]~6~-b,mP38,14                                    
_chemical_formula_weight                 441.9

# Bibliographic data

_publ_section_title
;
Etude des processus de d\'egradation thermique des sels doubles hydrat\'es. II. Contribution a l'\'etude de la d\'eshydratation du sel K~2~Cu(SO~4~)~2~.6H~2~O
;
_journal_coden_ASTM                      BSCFAS
_journal_name_full                       'Bull. Soc. Chim. Fr.'
_journal_year                            1968
_journal_volume                          ?
_journal_page_first                      3651
_journal_page_last                       3654
_journal_language                        French
loop_
 _publ_author_name
 _publ_author_address
'Tardy M.'
;
Paris University
Laboratoire de Cin\'etique Chimique
Paris
France
;
'Pannetier G.'
;
Paris University
Laboratoire de Cin\'etique Chimique
Paris
France
;

# Standardized crystallographic data

_cell_length_a                           6.192
_cell_length_b                           12.134
_cell_length_c                           9.113
_cell_angle_alpha                        90
_cell_angle_beta                         104.47
_cell_angle_gamma                        90
_cell_volume                             663
_cell_formula_units_Z                    2
_space_group_IT_number                   14
_space_group_name_H-M_alt                'P 1 21/c 1'
loop_
 _space_group_symop_id
 _space_group_symop_operation_xyz
 1 'x, y, z'
 2 '-x, -y, -z'
 3 '-x, 1/2+y, 1/2-z'
 4 'x, 1/2-y, 1/2+z'

# Atomic positions taken from type-defining entry

loop_
 _atom_type_symbol
 O
 K
 S
 Cu
loop_
 _atom_site_label
 _atom_site_type_symbol
 _atom_site_symmetry_multiplicity
 _atom_site_Wyckoff_symbol
 _atom_site_fract_x
 _atom_site_fract_y
 _atom_site_fract_z
 _atom_site_occupancy
 O1 O 4 e 0.0898 0.2295 0.4039 1
 O2 O 4 e 0.1282 0.0674 0.2807 1
 K1 K 4 e 0.1389 0.851 0.3684 1
 O3 O 4 e 0.2018 0.0691 0.002 1
 S1 S 4 e 0.243 0.1396 0.4046 1
 O4 O 4 e 0.2873 0.4175 0.0463 1
 O5 O 4 e 0.4546 0.1785 0.3821 1
 O6 O 4 e 0.5303 0.3904 0.3393 1
 O7 O 4 e 0.6669 0.1045 0.1694 1
 Cu1 Cu 2 b 0.5 0 0 1


_exptl_crystal_colour                    ?
_exptl_crystal_density_meas              2.18
_exptl_crystal_density_diffrn            2.21
_cell_measurement_temperature            ?
_cell_measurement_radiation              'X-rays, Cu Ka'
_cell_measurement_reflns_used            ?
_diffrn_ambient_temperature              ?
_diffrn_measurement_device               'Bohlin-Seemann film'
_diffrn_measurement_device_type          ?
_diffrn_radiation_type                   ?
_diffrn_reflns_number                    ?
_exptl_absorpt_coefficient_mu            ?
_exptl_absorpt_correction_type           ?
_computing_structure_solution            ?
_refine_ls_number_parameters             ?
_refine_ls_number_reflns                 ?
_refine_ls_R_factor_gt                   ?
_refine_ls_wR_factor_gt                  ?

# Published diffraction lines

loop_
 _refln_index_h
 _refln_index_k
 _refln_index_l
 _refln_d_spacing
 _refln_intensity_meas
 0 2 0 60.9 9
 0 0 1 60.2 2
 0 1 1 53.9 7
 1 1 -1 51.3 5
 1 2 0 50.1 3
 2 0 0 44.4 10
 0 2 1 42.6 21
 1 1 1 41.9 73
 1 2 -1 41.4 16
 2 0 -1 40.7 72
 2 1 -1 38.5 2
 1 3 0 36.8 100
 1 2 1 35.9 7
 2 2 0 35.6 13
 0 3 1 33.5 6
 1 3 -1 32.9 11
 2 0 1 31.86 17
 2 1 1 30.82 10
 0 4 0 30.35 19
 2 3 0 29.78 42
 0 1 -2 29.09 0.5
 3 1 0 28.55 15
 2 2 1 28.2 43
 1 2 -2 27.43 11
 0 4 1 27.08 1
 0 2 2 26.92 2
 1 4 -1 26.69 15
 3 2 -1 26.49 14
 2 2 -2 25.57 5
 1 4 1 25.05 11
 3 3 0 23.77 25
 1 5 0 23.4 2
 0 5 1 22.47 9
 2 1 2 21.94 23
 2 5 0 21.27 10
 2 5 -1 20.82 2
 3 3 1 20.66 19
 1 1 -3 20.3 0.5
 2 0 -3 20.19 1
 0 6 0 19.67 0.5
 0 6 1 19.12 2
 0 5 2 18.83 5
 3 5 0 18.69 6
 3 1 2 18.54 7
 4 2 1 18.32 5
 4 4 -1 18.1 5

# End of data set 381592


