##############################################################################
#                                                                            #
# Ge-K-Te          # K2GeTe4                                       #  461923 #
#                                                                            #
##############################################################################
#                                                                            #
#                           Pearson's Crystal Data                           #
#      Crystal Structure Database for Inorganic Compounds (on DVD)           #
#                              Release 2017/18                               #
#                  Editors: Pierre Villars and Karin Cenzual                 #
#                                                                            #
#   Copyright (c) ASM International & Material Phases Data System (MPDS),    #
# Switzerland & National Institute for Materials Science (NIMS), Japan, 2017 #
#                   All rights reserved. Version 2017.08                     #
#                                                                            #
#   This copy of Pearson's Crystal Data is licensed to:                      #
#   University of Alberta, Chemistry Department, 1-5 Installations License         #
#                                                                            #
##############################################################################

data_461923
_audit_creation_date                     2017-12-01
_audit_creation_method
;
Pearson's Crystal Data browser
;
#_database_code_PCD                      461923

# Entry summary

_chemical_formula_structural             'K~2~ Ge Te~4~'
_chemical_formula_sum                    'Ge K2 Te4'
_chemical_name_mineral                   ?
_chemical_compound_source                ?
_chemical_name_structure_type            K~2~GeTe~4~,mP28,14
_chemical_formula_weight                 661.2
_chemical_melting_point                  678(10)

# Bibliographic data

_publ_section_title
'K~2~GeTe~4~, ein Pertelluridogermanat mit Kettenstruktur'                    
_journal_coden_ASTM                      MRBUAC
_journal_name_full                       'Mater. Res. Bull.'
_journal_year                            1984
_journal_volume                          19
_journal_page_first                      293
_journal_page_last                       298
_journal_language                        German
loop_
 _publ_author_name
 _publ_author_address
'Eisenmann B.'
;
Darmstadt University of Technology
Institut f\"ur Anorganische Chemie
Darmstadt
Germany
;
'Schrod H.'
;
Darmstadt University of Technology
Institut f\"ur Anorganische Chemie
Darmstadt
Germany
;
'Sch\"afer H.'
;
Darmstadt University of Technology
Institut f\"ur Anorganische Chemie
Darmstadt
Germany
;

# Standardized crystallographic data

_cell_length_a                           12.703
_cell_length_b                           8.68
_cell_length_c                           9.829
_cell_angle_alpha                        90
_cell_angle_beta                         104.8
_cell_angle_gamma                        90
_cell_volume                             1047.8
_cell_formula_units_Z                    4
_space_group_IT_number                   14
_space_group_name_H-M_alt                'P 1 21/c 1'
loop_
 _space_group_symop_id
 _space_group_symop_operation_xyz
 1 'x, y, z'
 2 '-x, -y, -z'
 3 '-x, 1/2+y, 1/2-z'
 4 'x, 1/2-y, 1/2+z'
loop_
 _atom_type_symbol
 Te
 K
 Ge
loop_
 _atom_site_label
 _atom_site_type_symbol
 _atom_site_symmetry_multiplicity
 _atom_site_Wyckoff_symbol
 _atom_site_fract_x
 _atom_site_fract_y
 _atom_site_fract_z
 _atom_site_occupancy
 Te4 Te 4 e 0.0687 0.2843 0.0442 1
 Te1 Te 4 e 0.1441 0.031 0.2053 1
 K2 K 4 e 0.1543 0.5797 0.3094 1
 Ge1 Ge 4 e 0.241 0.1314 0.4587 1
 Te2 Te 4 e 0.2993 0.6399 0.0431 1
 Te3 Te 4 e 0.3802 0.3383 0.4665 1
 K1 K 4 e 0.5459 0.4361 0.2171 1


_exptl_crystal_colour                    gray
_exptl_crystal_density_meas              4.23
_exptl_crystal_density_diffrn            4.19
_cell_measurement_temperature            ?
_cell_measurement_radiation              'X-rays, Mo Ka'
_cell_measurement_reflns_used            25
_diffrn_ambient_temperature              ?
_diffrn_measurement_device               'automatic diffractometer'
_diffrn_measurement_device_type          'Philips PW1100'
_diffrn_radiation_type                   'X-rays, Mo Ka'
_diffrn_reflns_number                    6449
_diffrn_reflns_theta_min                 2.5
_diffrn_reflns_theta_max                 30
_exptl_absorpt_coefficient_mu            13.741
_exptl_absorpt_correction_type           ?
_computing_structure_solution            'direct methods'
_refine_ls_number_parameters             54
_refine_ls_number_reflns                 2664
_refine_ls_R_factor_gt                   0.063
_refine_ls_wR_factor_gt                  ?

# End of data set 461923


