##############################################################################
#                                                                            #
# F-H-K-Mn-O       # K2MnF5[H2O] rt                                # 1504048 #
#                                                                            #
##############################################################################
#                                                                            #
#                           Pearson's Crystal Data                           #
#      Crystal Structure Database for Inorganic Compounds (on DVD)           #
#                              Release 2017/18                               #
#                  Editors: Pierre Villars and Karin Cenzual                 #
#                                                                            #
#   Copyright (c) ASM International & Material Phases Data System (MPDS),    #
# Switzerland & National Institute for Materials Science (NIMS), Japan, 2017 #
#                   All rights reserved. Version 2017.08                     #
#                                                                            #
#   This copy of Pearson's Crystal Data is licensed to:                      #
#   University of Alberta, Chemistry Department, 1-5 Installations License         #
#                                                                            #
##############################################################################

data_1504048
_audit_creation_date                     2017-12-05
_audit_creation_method
;
Pearson's Crystal Data browser
;
#_database_code_PCD                      1504048

# Entry summary

_chemical_formula_structural             'K~2~ Mn F~5~ [H~2~ O]'
_chemical_formula_sum                    'F5 H2 K2 Mn O'
_chemical_name_mineral                   ?
_chemical_compound_source                ?
_chemical_name_structure_type            K~2~MnF~5~[H~2~O],mP18,11
_chemical_formula_weight                 246.1

# Bibliographic data

_publ_section_title
'Investigation of K~2~MnF~5~.H~2~O by Neutron Diffraction'                    
_journal_coden_ASTM                      JSSCBI
_journal_name_full                       'J. Solid State Chem.'
_journal_year                            2000
_journal_volume                          150
_journal_page_first                      104
_journal_page_last                       111
_journal_language                        English
loop_
 _publ_author_name
 _publ_author_address
'Roisnel T.'
;
Centre National de la Recherche Scientifique (CNRS)
Laboratoire L\'eon Brillouin (LLB)
Gif-sur-Yvette
France
;
'Nunez P.'
;
Tenerife La Laguna University
Departamento de Quimica Inorganica
Tenerife
Spain
;
'Tressaud A.'
;
Pessac Bordeaux I University
Institut de Chimie de la Mati\`ere Condens\'ee de Bordeaux
Pessac
France
;
'Molins E.'
;
Consejo Superior de Investigaciones Cientificas
Institut de Ci\`encia de Materials
Bellaterra
Spain
;
'Rodriguez Carvajal J.'
;
Centre National de la Recherche Scientifique (CNRS)
Laboratoire L\'eon Brillouin (LLB)
Gif-sur-Yvette
France
;

# Standardized crystallographic data

_cell_length_a                           5.881
_cell_length_b                           8.127
_cell_length_c                           6.259
_cell_angle_alpha                        90
_cell_angle_beta                         96.35
_cell_angle_gamma                        90
_cell_volume                             297.3
_cell_formula_units_Z                    2
_space_group_IT_number                   11
_space_group_name_H-M_alt                'P 1 21/m 1'
loop_
 _space_group_symop_id
 _space_group_symop_operation_xyz
 1 'x, y, z'
 2 '-x, -y, -z'
 3 '-x, 1/2+y, -z'
 4 'x, 1/2-y, z'
loop_
 _atom_type_symbol
 F
 O
 K
 Mn
 H
loop_
 _atom_site_label
 _atom_site_type_symbol
 _atom_site_symmetry_multiplicity
 _atom_site_Wyckoff_symbol
 _atom_site_fract_x
 _atom_site_fract_y
 _atom_site_fract_z
 _atom_site_occupancy
 F1 F 4 f 0.184 0.5257 0.264 1
 F2 F 4 f 0.746 0.0324 0.1486 1
 F3 F 2 e 0.071 0.25 0.0106 1
 O O 2 e 0.4133 0.25 0.4357 1
 K2 K 2 e 0.4999 0.25 0.8793 1
 K1 K 2 e 0.8953 0.25 0.451 1
 Mn Mn 2 a 0 0 0 1
 H H 4 f 0.3646 0.1558 0.3688 1


_exptl_crystal_colour                    pink
_exptl_crystal_density_meas              ?
_exptl_crystal_density_diffrn            2.75
_cell_measurement_temperature            30
_cell_measurement_radiation              neutrons
_cell_measurement_wavelength             2.3433
_pd_proc_wavelength                      2.3433
_cell_measurement_reflns_used            ?
_diffrn_ambient_temperature              30
_diffrn_measurement_device               'automatic diffractometer'
_diffrn_measurement_device_type
'France, Saclay, Laboratoire Leon Brillouin LLB, ORPHEE reactor, G4.2'        
_diffrn_radiation_type                   neutrons
_diffrn_radiation_wavelength             2.3433
_diffrn_reflns_number                    ?
_exptl_absorpt_coefficient_mu            ?
_exptl_absorpt_correction_type           ?
_computing_structure_solution            'starting values from the literature'
_refine_ls_number_parameters             ?
_refine_ls_number_reflns                 ?
_refine_ls_R_factor_gt                   ?
_refine_ls_wR_factor_gt                  ?
_pd_proc_ls_proof_R_factor               ?
_pd_proc_ls_proof_wR_factor              ?
_refine_ls_R_I_factor                    ?

# End of data set 1504048


