##############################################################################
#                                                                            #
# F-H-K-Mo-O       # K2MoO2F4[H2O]                                 #  312852 #
#                                                                            #
##############################################################################
#                                                                            #
#                           Pearson's Crystal Data                           #
#      Crystal Structure Database for Inorganic Compounds (on DVD)           #
#                              Release 2017/18                               #
#                  Editors: Pierre Villars and Karin Cenzual                 #
#                                                                            #
#   Copyright (c) ASM International & Material Phases Data System (MPDS),    #
# Switzerland & National Institute for Materials Science (NIMS), Japan, 2017 #
#                   All rights reserved. Version 2017.08                     #
#                                                                            #
#   This copy of Pearson's Crystal Data is licensed to:                      #
#   University of Alberta, Chemistry Department, 1-5 Installations License         #
#                                                                            #
##############################################################################

data_312852
_audit_creation_date                     2017-12-01
_audit_creation_method
;
Pearson's Crystal Data browser
;
#_database_code_PCD                      312852

# Entry summary

_chemical_formula_structural             'K~2~ Mo O~2~ F~4~ [H~2~ O]'
_chemical_formula_sum                    'F4 H2 K2 Mo O3'
_chemical_name_mineral                   ?
_chemical_compound_source                ?
_chemical_name_structure_type            K~2~MoO~2~F~4~[H~2~O],mP40,14
_chemical_formula_weight                 300.1

# Bibliographic data

_publ_section_title
;
Etude structurale des complexes oxofluor\'es et oxoperoxofluor\'es du molybd\`ene(V) et (VI). III. Structure cristalline du dioxot\'etrafluoromolybdate de potassium a une mol\'ecule d'eau
;
_journal_coden_ASTM                      BSCFAS
_journal_name_full                       'Bull. Soc. Chim. Fr.'
_journal_year                            1967
_journal_volume                          ?
_journal_page_first                      3049
_journal_page_last                       3054
_journal_language                        French
loop_
 _publ_author_name
 _publ_author_address
'Grandjean D.'
;
Strasbourg Louis Pasteur University
Laboratoire de Physique et Chimie des Mat\'eriaux
Strasbourg
France
;
'Weiss R.'
;
Strasbourg Louis Pasteur University
Laboratoire de Physique et Chimie des Mat\'eriaux
Strasbourg
France
;

# Standardized crystallographic data

_cell_length_a                           6.308
_cell_length_b                           6.274
_cell_length_c                           18.166
_cell_angle_alpha                        90
_cell_angle_beta                         98.33
_cell_angle_gamma                        90
_cell_volume                             711.4
_cell_formula_units_Z                    4
_space_group_IT_number                   14
_space_group_name_H-M_alt                'P 1 21/c 1'
loop_
 _space_group_symop_id
 _space_group_symop_operation_xyz
 1 'x, y, z'
 2 '-x, -y, -z'
 3 '-x, 1/2+y, 1/2-z'
 4 'x, 1/2-y, 1/2+z'
loop_
 _atom_type_symbol
 O
 F
 Mo
 OH2
 K
loop_
 _atom_site_label
 _atom_site_type_symbol
 _atom_site_symmetry_multiplicity
 _atom_site_Wyckoff_symbol
 _atom_site_fract_x
 _atom_site_fract_y
 _atom_site_fract_z
 _atom_site_occupancy
 O2 O 4 e 0.0019 0.5221 0.1317 1
 F4 F 4 e 0.0124 0.0982 0.1338 1
 Mo Mo 4 e 0.2131 0.3389 0.1323 1
 O1 O 4 e 0.2159 0.3364 0.039 1
 F1 F 4 e 0.2193 0.3207 0.2431 1
 (H2O) OH2 4 e 0.2854 0.8236 0.009 1
 K1 K 4 e 0.3099 0.3428 0.4011 1
 F2 F 4 e 0.4487 0.1368 0.1557 1
 F3 F 4 e 0.567 0.057 0.3461 1
 K2 K 4 e 0.757 0.3484 0.2505 1


_exptl_crystal_colour                    ?
_exptl_crystal_density_meas              ?
_exptl_crystal_density_diffrn            2.80
_cell_measurement_temperature            ?
_cell_measurement_radiation              X-rays
_cell_measurement_reflns_used            ?
_diffrn_ambient_temperature              ?
_diffrn_measurement_device               photographs
_diffrn_measurement_device_type          ?
_diffrn_radiation_type                   X-rays
_diffrn_reflns_number                    ?
_exptl_absorpt_coefficient_mu            ?
_exptl_absorpt_correction_type           ?
_computing_structure_solution            'Patterson and Fourier synthesis'
_refine_ls_number_parameters             ?
_refine_ls_number_reflns                 ?
_refine_ls_R_factor_gt                   0.117
_refine_ls_wR_factor_gt                  ?

# End of data set 312852


