##############################################################################
#                                                                            #
# F-H-K-Mo-O       # K2MoOF5[H2O]                                  #  377604 #
#                                                                            #
##############################################################################
#                                                                            #
#                           Pearson's Crystal Data                           #
#      Crystal Structure Database for Inorganic Compounds (on DVD)           #
#                              Release 2017/18                               #
#                  Editors: Pierre Villars and Karin Cenzual                 #
#                                                                            #
#   Copyright (c) ASM International & Material Phases Data System (MPDS),    #
# Switzerland & National Institute for Materials Science (NIMS), Japan, 2017 #
#                   All rights reserved. Version 2017.08                     #
#                                                                            #
#   This copy of Pearson's Crystal Data is licensed to:                      #
#   University of Alberta, Chemistry Department, 1-5 Installations License         #
#                                                                            #
##############################################################################

data_377604
_audit_creation_date                     2017-12-01
_audit_creation_method
;
Pearson's Crystal Data browser
;
#_database_code_PCD                      377604

# Entry summary

_chemical_formula_structural             'K~2~ Mo O F~5~ [H~2~ O]'
_chemical_formula_sum                    'F5 H2 K2 Mo O2'
_chemical_name_mineral                   ?
_chemical_compound_source                ?
_chemical_name_structure_type            K~2~MoOF~5~[H~2~O],mS40,5
_chemical_formula_weight                 303.1

# Bibliographic data

_publ_section_title
;
Etude radiocristallographique de l'oxopentafluoromolybdate(V) de potassium a une mol\'ecule d'eau, K~2~MoOF~5~-H~2~O
;
_journal_coden_ASTM                      CHDCAQ
_journal_name_full                       'C. R. Seances Acad. Sci., Ser. C'
_journal_year                            1966
_journal_volume                          263
_journal_page_first                      58
_journal_page_last                       59
_journal_language                        French
loop_
 _publ_author_name
 _publ_author_address
'Grandjean D.'
;
Rennes I University
Rennes
France
;
'Weiss R.'
;
Strasbourg Louis Pasteur University
Strasbourg
France
;

# Standardized crystallographic data

_cell_length_a                           8.533
_cell_length_b                           8.508
_cell_length_c                           9.107
_cell_angle_alpha                        90
_cell_angle_beta                         100.05
_cell_angle_gamma                        90
_cell_volume                             651.01
_cell_formula_units_Z                    4
_space_group_IT_number                   5
_space_group_name_H-M_alt                'C 1 2 1'
loop_
 _space_group_symop_id
 _space_group_symop_operation_xyz
 1 'x, y, z'
 2 '-x, y, -z'
 3 '1/2+x, 1/2+y, z'
 4 '1/2-x, 1/2+y, -z'
loop_
 _atom_type_symbol
 F
 K
 Mo
 O
 OH2
loop_
 _atom_site_label
 _atom_site_type_symbol
 _atom_site_symmetry_multiplicity
 _atom_site_Wyckoff_symbol
 _atom_site_fract_x
 _atom_site_fract_y
 _atom_site_fract_z
 _atom_site_occupancy
 F3 F 4 c 0.0577 0.2631 0.1878 1
 K1 K 4 c 0.1977 0.2606 0.7047 1
 F2 F 4 c 0.2673 0.2475 0.0098 1
 F4 F 4 c 0.2674 0.0314 0.2487 1
 F5 F 4 c 0.2867 0.466 0.1993 1
 Mo Mo 4 c 0.2869 0.2508 0.235 1
 O O 4 c 0.2938 0.2823 0.4162 1
 F1 F 4 c 0.501 0.2912 0.233 1
 H2O2 OH2 2 b 0 0.0018 0.5 1
 H2O1 OH2 2 b 0 0.4303 0.5 1
 K3 K 2 a 0 0.0 0 1
 K2 K 2 a 0 0.5121 0 1


_exptl_crystal_colour                    ?
_exptl_crystal_density_meas              3.09
_exptl_crystal_density_diffrn            3.09
_cell_measurement_temperature            ?
_cell_measurement_radiation              X-rays
_cell_measurement_reflns_used            ?
_diffrn_ambient_temperature              ?
_diffrn_measurement_device               'automatic diffractometer'
_diffrn_measurement_device_type          ?
_diffrn_radiation_type                   X-rays
_diffrn_reflns_number                    312
_exptl_absorpt_coefficient_mu            ?
_exptl_absorpt_correction_type           ?
_computing_structure_solution            'Patterson and Fourier synthesis'
_refine_ls_number_parameters             ?
_refine_ls_number_reflns                 ?
_refine_ls_R_factor_gt                   0.124
_refine_ls_wR_factor_gt                  ?

# End of data set 377604


