##############################################################################
#                                                                            #
# Cl-K-N-O-Pd      # K2Pd[NO2]2Cl2                                 #  543977 #
#                                                                            #
##############################################################################
#                                                                            #
#                           Pearson's Crystal Data                           #
#      Crystal Structure Database for Inorganic Compounds (on DVD)           #
#                              Release 2017/18                               #
#                  Editors: Pierre Villars and Karin Cenzual                 #
#                                                                            #
#   Copyright (c) ASM International & Material Phases Data System (MPDS),    #
# Switzerland & National Institute for Materials Science (NIMS), Japan, 2017 #
#                   All rights reserved. Version 2017.08                     #
#                                                                            #
#   This copy of Pearson's Crystal Data is licensed to:                      #
#   University of Alberta, Chemistry Department, 1-5 Installations License         #
#                                                                            #
##############################################################################

data_543977
_audit_creation_date                     2017-12-04
_audit_creation_method
;
Pearson's Crystal Data browser
;
#_database_code_PCD                      543977

# Entry summary

_chemical_formula_structural             'K~2~ Pd [N O~2~]~2~ Cl~2~'
_chemical_formula_sum                    'Cl2 K2 N2 O4 Pd'
_chemical_name_mineral                   ?
_chemical_compound_source                ?
_chemical_name_structure_type            K~2~Pd[NO~2~]~2~Cl~2~,mS22,12
_chemical_formula_weight                 347.5

# Bibliographic data

_publ_section_title
;
The crystal structure of K~2~[Pd(NO~2~)~2~Cl~2~] compared to K~2~[Pd(NO~2~)~4~] and K~2~PdCl~4~
;
_journal_coden_ASTM                      RJICAQ
_journal_name_full                       'Russ. J. Inorg. Chem.'
_journal_year                            1994
_journal_volume                          39
_journal_page_first                      1932
_journal_page_last                       1935
_journal_language                        English
loop_
 _publ_author_name
 _publ_author_address
'Gromilov S.A.'
;
Russian Academy of Sciences
Nikolaev A.V. Institute of Inorganic Chemistry
Novosibirsk
Russia
;
'Alekseev V.I.'
;
Russian Academy of Sciences
Nikolaev A.V. Institute of Inorganic Chemistry
Novosibirsk
Russia
;
'Baidina I.A.'
;
Russian Academy of Sciences
Nikolaev A.V. Institute of Inorganic Chemistry
Novosibirsk
Russia
;
'Khranenko S.P.'
;
Russian Academy of Sciences
Nikolaev A.V. Institute of Inorganic Chemistry
Novosibirsk
Russia
;
'Belyaev A.V.'
;
Russian Academy of Sciences
Nikolaev A.V. Institute of Inorganic Chemistry
Novosibirsk
Russia
;

# Standardized crystallographic data

_cell_length_a                           7.663
_cell_length_b                           13.63
_cell_length_c                           4.102
_cell_angle_alpha                        90
_cell_angle_beta                         107.86
_cell_angle_gamma                        90
_cell_volume                             407.8
_cell_formula_units_Z                    2
_space_group_IT_number                   12
_space_group_name_H-M_alt                'C 1 2/m 1'
loop_
 _space_group_symop_id
 _space_group_symop_operation_xyz
 1 'x, y, z'
 2 '-x, -y, -z'
 3 '-x, y, -z'
 4 'x, -y, z'
 5 '1/2+x, 1/2+y, z'
 6 '1/2-x, 1/2-y, -z'
 7 '1/2-x, 1/2+y, -z'
 8 '1/2+x, 1/2-y, z'
loop_
 _atom_type_symbol
 O
 Cl
 N
 K
 Pd
loop_
 _atom_site_label
 _atom_site_type_symbol
 _atom_site_symmetry_multiplicity
 _atom_site_Wyckoff_symbol
 _atom_site_fract_x
 _atom_site_fract_y
 _atom_site_fract_z
 _atom_site_occupancy
 O O 8 j 0.37581 0.30705 0.2987 1
 Cl Cl 4 i 0.27708 0 0.38495 1
 N N 4 h 0 0.14698 0.5 1
 K K 4 g 0 0.35265 0 1
 Pd Pd 2 a 0 0 0 1


_exptl_crystal_colour                    'brown yellow'
_exptl_crystal_density_meas              2.82
_exptl_crystal_density_diffrn            2.83
_cell_measurement_temperature            298
_cell_measurement_radiation              ?
_cell_measurement_reflns_used            ?
_diffrn_ambient_temperature              ?
_diffrn_measurement_device               'automatic diffractometer'
_diffrn_measurement_device_type          'Enraf-Nonius CAD4'
_diffrn_radiation_type                   'X-rays, Mo Ka'
_diffrn_reflns_number                    ?
_exptl_absorpt_coefficient_mu            ?
_exptl_absorpt_correction_type           ?
_computing_structure_solution            'direct methods'
_refine_ls_number_parameters             ?
_refine_ls_number_reflns                 599
_refine_ls_R_factor_gt                   0.020
_refine_ls_wR_factor_gt                  0.021

# End of data set 543977


