##############################################################################
#                                                                            #
# K-S              # K2S2 rt                                       #  526495 #
#                                                                            #
##############################################################################
#                                                                            #
#                           Pearson's Crystal Data                           #
#      Crystal Structure Database for Inorganic Compounds (on DVD)           #
#                              Release 2017/18                               #
#                  Editors: Pierre Villars and Karin Cenzual                 #
#                                                                            #
#   Copyright (c) ASM International & Material Phases Data System (MPDS),    #
# Switzerland & National Institute for Materials Science (NIMS), Japan, 2017 #
#                   All rights reserved. Version 2017.08                     #
#                                                                            #
#   This copy of Pearson's Crystal Data is licensed to:                      #
#   University of Alberta, Chemistry Department, 1-5 Installations License         #
#                                                                            #
##############################################################################

data_526495
_audit_creation_date                     2017-12-01
_audit_creation_method
;
Pearson's Crystal Data browser
;
#_database_code_PCD                      526495

# Entry summary

_chemical_formula_structural             'K~2~ S~2~'
_chemical_formula_sum                    'K2 S2'
_chemical_name_mineral                   ?
_chemical_compound_source                ?
_chemical_name_structure_type            Na~2~[O~2~],hP12,189
_chemical_formula_weight                 142.3

# Bibliographic data

_publ_section_title
;
Die Kristallstrukturen von \a-Na~2~S~2~ und K~2~S~2~, \b-Na~2~S~2~ und Na~2~Se~2~
;
_journal_coden_ASTM                      ZAACAB
_journal_name_full                       'Z. Anorg. Allg. Chem.'
_journal_year                            1962
_journal_volume                          314
_journal_page_first                      12
_journal_page_last                       20
_journal_language                        German
loop_
 _publ_author_name
 _publ_author_address
'F\"oppl H.'
;
M\"unster Westf\"alische Wilhelm University
Institut f\"ur Anorganische Chemie
M\"unster
Germany
;
'Busmann E.'
;
M\"unster Westf\"alische Wilhelm University
Institut f\"ur Anorganische Chemie
M\"unster
Germany
;
'Frorath F.K.'
;
M\"unster Westf\"alische Wilhelm University
Institut f\"ur Anorganische Chemie
M\"unster
Germany
;

# Standardized crystallographic data

_cell_length_a                           8.49
_cell_length_b                           8.49
_cell_length_c                           5.84
_cell_angle_alpha                        90
_cell_angle_beta                         90
_cell_angle_gamma                        120
_cell_volume                             364.55
_cell_formula_units_Z                    3
_space_group_IT_number                   189
_space_group_name_H-M_alt                'P -6 2 m'
loop_
 _space_group_symop_id
 _space_group_symop_operation_xyz
 1 'x, y, z'
 2 '-x+y, -x, -z'
 3 '-x+y, -x, z'
 4 '-x, -x+y, -z'
 5 '-x, -x+y, z'
 6 '-y, x-y, -z'
 7 '-y, x-y, z'
 8 'x, y, -z'
 9 'x-y, -y, -z'
 10 'x-y, -y, z'
 11 'y, x, -z'
 12 'y, x, z'
loop_
 _atom_type_symbol
 S
 K
loop_
 _atom_site_label
 _atom_site_type_symbol
 _atom_site_symmetry_multiplicity
 _atom_site_Wyckoff_symbol
 _atom_site_fract_x
 _atom_site_fract_y
 _atom_site_fract_z
 _atom_site_occupancy
 S2 S 4 h 0.333333 0.666667 0.18 1
 K2 K 3 g 0.63 0 0.5 1
 K1 K 3 f 0.3 0 0 1
 S1 S 2 e 0 0 0.32 1


_exptl_crystal_colour                    ?
_exptl_crystal_density_meas              1.89
_exptl_crystal_density_diffrn            1.94
_cell_measurement_temperature            ?
_cell_measurement_radiation              'X-rays, Fe Ka'
_cell_measurement_reflns_used            ?
_diffrn_ambient_temperature              ?
_diffrn_measurement_device               'Straumanis film'
_diffrn_measurement_device_type          ?
_diffrn_radiation_type                   'X-rays, Fe Ka'
_diffrn_reflns_number                    ?
_exptl_absorpt_coefficient_mu            ?
_exptl_absorpt_correction_type           ?
_computing_structure_solution            'starting values from the literature'
_refine_ls_number_parameters             ?
_refine_ls_number_reflns                 ?
_refine_ls_R_factor_gt                   0.122
_refine_ls_wR_factor_gt                  ?
_pd_proc_ls_proof_R_factor               ?
_pd_proc_ls_proof_wR_factor              ?
_refine_ls_R_I_factor                    ?

# End of data set 526495


