##############################################################################
#                                                                            #
# K-O-Ti           # K2Ti6O13                                      # 1005014 #
#                                                                            #
##############################################################################
#                                                                            #
#                           Pearson's Crystal Data                           #
#      Crystal Structure Database for Inorganic Compounds (on DVD)           #
#                              Release 2017/18                               #
#                  Editors: Pierre Villars and Karin Cenzual                 #
#                                                                            #
#   Copyright (c) ASM International & Material Phases Data System (MPDS),    #
# Switzerland & National Institute for Materials Science (NIMS), Japan, 2017 #
#                   All rights reserved. Version 2017.08                     #
#                                                                            #
#   This copy of Pearson's Crystal Data is licensed to:                      #
#   University of Alberta, Chemistry Department, 1-5 Installations License         #
#                                                                            #
##############################################################################

data_1005014
_audit_creation_date                     2017-12-04
_audit_creation_method
;
Pearson's Crystal Data browser
;
#_database_code_PCD                      1005014

# Entry summary

_chemical_formula_structural             'K~2~ Ti~6~ O~13~'
_chemical_formula_sum                    'K2 O13 Ti6'
_chemical_name_mineral                   ?
_chemical_compound_source                ?
_chemical_name_structure_type            Na~2~Ti~6~O~13~,mS42,12
_chemical_formula_weight                 573.6

# Bibliographic data

_publ_section_title
'The crystal structure of potassium hexatitanate K~2~Ti~6~O~13~'              
_journal_coden_ASTM                      ZKKKAJ
_journal_name_full                       'Z. Kristallogr.'
_journal_year                            1962
_journal_volume                          117
_journal_page_first                      411
_journal_page_last                       430
_journal_language                        English
loop_
 _publ_author_name
 _publ_author_address
'Cid Dresdner H.'
;
Massachusetts Institute of Technology (MIT)
Cambridge
U.S.A. Massachusetts
;
'Buerger M.J.'
;
Massachusetts Institute of Technology (MIT)
Cambridge
U.S.A. Massachusetts
;

# Standardized crystallographic data

_cell_length_a                           15.582
_cell_length_b                           3.82
_cell_length_c                           9.112
_cell_angle_alpha                        90
_cell_angle_beta                         99.764
_cell_angle_gamma                        90
_cell_volume                             534.5
_cell_formula_units_Z                    2
_space_group_IT_number                   12
_space_group_name_H-M_alt                'C 1 2/m 1'
loop_
 _space_group_symop_id
 _space_group_symop_operation_xyz
 1 'x, y, z'
 2 '-x, -y, -z'
 3 '-x, y, -z'
 4 'x, -y, z'
 5 '1/2+x, 1/2+y, z'
 6 '1/2-x, 1/2-y, -z'
 7 '1/2-x, 1/2+y, -z'
 8 '1/2+x, 1/2-y, z'
loop_
 _atom_type_symbol
 O
 Ti
 K
loop_
 _atom_site_label
 _atom_site_type_symbol
 _atom_site_symmetry_multiplicity
 _atom_site_Wyckoff_symbol
 _atom_site_fract_x
 _atom_site_fract_y
 _atom_site_fract_z
 _atom_site_occupancy
 O3 O 4 i 0.0764 0 0.291 1
 Ti1 Ti 4 i 0.1142 0 0.098 1
 O5 O 4 i 0.133 0 0.616 1
 Ti2 Ti 4 i 0.1716 0 0.4386 1
 O2 O 4 i 0.237 0 0.237 1
 O4 O 4 i 0.2964 0 0.572 1
 K K 4 i 0.454 0 0.2474 1
 O6 O 4 i 0.6409 0 0.109 1
 Ti3 Ti 4 i 0.7675 0 0.2238 1
 O7 O 4 i 0.8323 0 0.083 1
 O1 O 2 a 0 0 0 1


_exptl_crystal_colour                    ?
_exptl_crystal_density_meas              3.58
_exptl_crystal_density_diffrn            3.56
_cell_measurement_temperature            ?
_cell_measurement_radiation              X-rays
_cell_measurement_reflns_used            ?
_diffrn_ambient_temperature              ?
_diffrn_measurement_device               'automatic diffractometer'
_diffrn_measurement_device_type          ?
_diffrn_radiation_type                   'X-rays, Cu Ka'
_diffrn_reflns_number                    600
_exptl_absorpt_coefficient_mu            ?
_exptl_absorpt_correction_type           yes
_computing_structure_solution            'Patterson and Fourier synthesis'
_refine_ls_number_parameters             ?
_refine_ls_number_reflns                 ?
_refine_ls_R_factor_gt                   0.124
_refine_ls_wR_factor_gt                  ?

# End of data set 1005014


