##############################################################################
#                                                                            #
# H-K-O-S-Zn       # K2Zn[SO4]2[H2O]6                              #  312824 #
#                                                                            #
##############################################################################
#                                                                            #
#                           Pearson's Crystal Data                           #
#      Crystal Structure Database for Inorganic Compounds (on DVD)           #
#                              Release 2017/18                               #
#                  Editors: Pierre Villars and Karin Cenzual                 #
#                                                                            #
#   Copyright (c) ASM International & Material Phases Data System (MPDS),    #
# Switzerland & National Institute for Materials Science (NIMS), Japan, 2017 #
#                   All rights reserved. Version 2017.08                     #
#                                                                            #
#   This copy of Pearson's Crystal Data is licensed to:                      #
#   University of Alberta, Chemistry Department, 1-5 Installations License         #
#                                                                            #
##############################################################################

data_312824
_audit_creation_date                     2017-12-01
_audit_creation_method
;
Pearson's Crystal Data browser
;
#_database_code_PCD                      312824

# Entry summary

_chemical_formula_structural             'K~2~ Zn [S O~4~]~2~ [H~2~ O]~6~'
_chemical_formula_sum                    'H12 K2 O14 S2 Zn'
_chemical_name_mineral                   ?
_chemical_compound_source                ?
_chemical_name_structure_type
[NH~4~]~2~Mg[SO~4~]~2~[H~2~O]~6~-b,mP38,14                                    
_chemical_formula_weight                 443.8

# Bibliographic data

_publ_section_title
;
Etude des processus de d\'egradation thermique des sels doubles hydrat\'es. I. Quelques aspects de la d\'eshydratation des sels K~2~Co(SO~4~)~2~.6H~2~O et K~2~Zn(SO~4~)~2~.6H~2~O
;
_journal_coden_ASTM                      BSCFAS
_journal_name_full                       'Bull. Soc. Chim. Fr.'
_journal_year                            1967
_journal_volume                          ?
_journal_page_first                      1331
_journal_page_last                       1335
_journal_language                        French
loop_
 _publ_author_name
 _publ_author_address
'Tardy M.'
;
Paris University
Laboratoire de Cin\'etique Chimique
Paris
France
;
'Pannetier G.'
;
Paris University
Laboratoire de Cin\'etique Chimique
Paris
France
;

# Standardized crystallographic data

_cell_length_a                           6.19
_cell_length_b                           12.26
_cell_length_c                           9.112
_cell_angle_alpha                        90
_cell_angle_beta                         104.6
_cell_angle_gamma                        90
_cell_volume                             669.2
_cell_formula_units_Z                    2
_space_group_IT_number                   14
_space_group_name_H-M_alt                'P 1 21/c 1'
loop_
 _space_group_symop_id
 _space_group_symop_operation_xyz
 1 'x, y, z'
 2 '-x, -y, -z'
 3 '-x, 1/2+y, 1/2-z'
 4 'x, 1/2-y, 1/2+z'

# Atomic positions taken from type-defining entry

loop_
 _atom_type_symbol
 O
 K
 S
 Zn
loop_
 _atom_site_label
 _atom_site_type_symbol
 _atom_site_symmetry_multiplicity
 _atom_site_Wyckoff_symbol
 _atom_site_fract_x
 _atom_site_fract_y
 _atom_site_fract_z
 _atom_site_occupancy
 O1 O 4 e 0.0898 0.2295 0.4039 1
 O2 O 4 e 0.1282 0.0674 0.2807 1
 K1 K 4 e 0.1389 0.851 0.3684 1
 O3 O 4 e 0.2018 0.0691 0.002 1
 S1 S 4 e 0.243 0.1396 0.4046 1
 O4 O 4 e 0.2873 0.4175 0.0463 1
 O5 O 4 e 0.4546 0.1785 0.3821 1
 O6 O 4 e 0.5303 0.3904 0.3393 1
 O7 O 4 e 0.6669 0.1045 0.1694 1
 Zn1 Zn 2 b 0.5 0 0 1


_exptl_crystal_colour                    ?
_exptl_crystal_density_meas              ?
_exptl_crystal_density_diffrn            2.20
_cell_measurement_temperature            ?
_cell_measurement_radiation              'X-rays, Cu Ka'
_cell_measurement_reflns_used            ?
_diffrn_ambient_temperature              ?
_diffrn_measurement_device               film
_diffrn_measurement_device_type          ?
_diffrn_radiation_type                   ?
_diffrn_reflns_number                    ?
_exptl_absorpt_coefficient_mu            ?
_exptl_absorpt_correction_type           ?
_computing_structure_solution            ?
_refine_ls_number_parameters             ?
_refine_ls_number_reflns                 ?
_refine_ls_R_factor_gt                   ?
_refine_ls_wR_factor_gt                  ?

# Published diffraction lines

loop_
 _refln_index_h
 _refln_index_k
 _refln_index_l
 _refln_d_spacing
 _refln_intensity_meas
 0 2 0 2620 13
 0 0 1 2750 4
 0 1 1 3440 11
 1 1 -1 3720 9
 1 2 0 3940 1
 2 0 0 5100 29
 0 2 1 5460 28
 1 1 1 5710 91
 2 0 -1 6040 100
 2 1 -1 6700 6
 1 3 0 7230 81
 1 2 1 7720 8
 2 2 0 7780 7
 0 3 1 8760 14
 1 3 -1 9060 12
 2 0 1 9800 15
 2 1 1 10560 38
 0 0 2 11150 73
 1 4 0 11970 6
 2 0 -2 12390 18
 2 2 1 12600 31
 -1 2 2 13250 23
 -1 4 1 13830 4
 3 2 0 14280 6
 -2 2 2 15210 3
 2 3 1 15920 17
 0 3 2 17220 5
 3 3 0 17640 35
 -4 0 1 19530 8
 3 2 1 19800 7
 2 1 2 20700 22
 1 5 1 21640 3
 3 4 -1 21990 15
 2 2 2 22860 1
 4 2 0 23310 10
 3 3 1 23520 15
 2 0 -3 24320 2
 4 1 -2 24720 3

# End of data set 312824


