##############################################################################
#                                                                            #
# K-O-Si-Zr        # K2ZrSi3O9                                     #  307150 #
#                                                                            #
##############################################################################
#                                                                            #
#                           Pearson's Crystal Data                           #
#      Crystal Structure Database for Inorganic Compounds (on DVD)           #
#                              Release 2017/18                               #
#                  Editors: Pierre Villars and Karin Cenzual                 #
#                                                                            #
#   Copyright (c) ASM International & Material Phases Data System (MPDS),    #
# Switzerland & National Institute for Materials Science (NIMS), Japan, 2017 #
#                   All rights reserved. Version 2017.08                     #
#                                                                            #
#   This copy of Pearson's Crystal Data is licensed to:                      #
#   University of Alberta, Chemistry Department, 1-5 Installations License         #
#                                                                            #
##############################################################################

data_307150
_audit_creation_date                     2017-12-01
_audit_creation_method
;
Pearson's Crystal Data browser
;
#_database_code_PCD                      307150

# Entry summary

_chemical_formula_structural             'K~2~ Zr Si~3~ O~9~'
_chemical_formula_sum                    'K2 O9 Si3 Zr'
_chemical_name_mineral                   wadeite
_chemical_compound_source                ?
_chemical_name_structure_type            K~2~ZrSi~3~O~9~,hP30,176
_chemical_formula_weight                 397.7

# Bibliographic data

_publ_section_title
;
Sur de nouvelles phases A~2~BSi~3~O~9~ et A~2~BGe~3~O~9~ de type wad\'eite ou de structure apparent\'ee
;
_journal_coden_ASTM                      CHDCAQ
_journal_name_full                       'C. R. Seances Acad. Sci., Ser. C'
_journal_year                            1971
_journal_volume                          273
_journal_page_first                      1504
_journal_page_last                       1507
_journal_language                        French
loop_
 _publ_author_name
 _publ_author_address
'Choisnet J.'
;
Grenoble
France
;
'Deschanvres A.'
;
Caen University
Caen
France
;
'Raveau B.'
;
Caen University
Caen
France
;

# Standardized crystallographic data

_cell_length_a                           6.893
_cell_length_b                           6.893
_cell_length_c                           10.172
_cell_angle_alpha                        90
_cell_angle_beta                         90
_cell_angle_gamma                        120
_cell_volume                             418.6
_cell_formula_units_Z                    2
_space_group_IT_number                   176
_space_group_name_H-M_alt                'P 63/m'
loop_
 _space_group_symop_id
 _space_group_symop_operation_xyz
 1 'x, y, z'
 2 '-x+y, -x, 1/2-z'
 3 '-x+y, -x, z'
 4 '-x, -y, -z'
 5 '-x, -y, 1/2+z'
 6 '-y, x-y, 1/2-z'
 7 '-y, x-y, z'
 8 'x, y, 1/2-z'
 9 'x-y, x, -z'
 10 'x-y, x, 1/2+z'
 11 'y, -x+y, -z'
 12 'y, -x+y, 1/2+z'

# Atomic positions taken from type-defining entry

loop_
 _atom_type_symbol
 O
 Si
 K
 Zr
loop_
 _atom_site_label
 _atom_site_type_symbol
 _atom_site_symmetry_multiplicity
 _atom_site_Wyckoff_symbol
 _atom_site_fract_x
 _atom_site_fract_y
 _atom_site_fract_z
 _atom_site_occupancy
 O1 O 12 i 0.2562 0.0225 0.1185 1
 Si1 Si 6 h 0.3859 0.127 0.25 1
 O2 O 6 h 0.6036 0.0942 0.25 1
 K1 K 4 f 0.333333 0.666667 0.0572 1
 Zr1 Zr 2 b 0 0 0 1


_exptl_crystal_colour                    ?
_exptl_crystal_density_meas              ?
_exptl_crystal_density_diffrn            3.16
_cell_measurement_temperature            ?
_cell_measurement_radiation              X-rays
_cell_measurement_reflns_used            ?
_diffrn_ambient_temperature              ?
_diffrn_measurement_device               film
_diffrn_measurement_device_type          ?
_diffrn_radiation_type                   ?
_diffrn_reflns_number                    ?
_exptl_absorpt_coefficient_mu            ?
_exptl_absorpt_correction_type           ?
_computing_structure_solution            ?
_refine_ls_number_parameters             ?
_refine_ls_number_reflns                 ?
_refine_ls_R_factor_gt                   ?
_refine_ls_wR_factor_gt                  ?

# End of data set 307150


