##############################################################################
#                                                                            #
# F-H-K-O-U        # K3[UO2]2F7[H2O]2                              #  307885 #
#                                                                            #
##############################################################################
#                                                                            #
#                           Pearson's Crystal Data                           #
#      Crystal Structure Database for Inorganic Compounds (on DVD)           #
#                              Release 2017/18                               #
#                  Editors: Pierre Villars and Karin Cenzual                 #
#                                                                            #
#   Copyright (c) ASM International & Material Phases Data System (MPDS),    #
# Switzerland & National Institute for Materials Science (NIMS), Japan, 2017 #
#                   All rights reserved. Version 2017.08                     #
#                                                                            #
#   This copy of Pearson's Crystal Data is licensed to:                      #
#   University of Alberta, Chemistry Department, 1-5 Installations License         #
#                                                                            #
##############################################################################

data_307885
_audit_creation_date                     2017-12-01
_audit_creation_method
;
Pearson's Crystal Data browser
;
#_database_code_PCD                      307885

# Entry summary

_chemical_formula_structural             'K~3~ [U O~2~]~2~ F~7~ [H~2~ O]~2~'
_chemical_formula_sum                    'F7 H4 K3 O6 U2'
_chemical_name_mineral                   ?
_chemical_compound_source                ?
_chemical_name_structure_type
K~3~[UO~2~]~2~F~7~[H~2~O]~2~,mP36,11                                          
_chemical_formula_weight                 826.4

# Bibliographic data

_publ_section_title
;
Comparaison de l'ion polynucl\'eaire [(UO~2~)~2~F~7~]^3-^ avec les ions binucl\'eaires [(UO~2~)~2~F~8~]^4-^ et [(UO~2~)~2~F~9~]^5-^
;
_journal_coden_ASTM                      CHDCAQ
_journal_name_full                       'C. R. Seances Acad. Sci., Ser. C'
_journal_year                            1974
_journal_volume                          278
_journal_page_first                      879
_journal_page_last                       881
_journal_language                        French
loop_
 _publ_author_name
 _publ_author_address
'Dao N.Q.'
;
Chatenay-Malabry Ecole Centrale des Arts et Manufactures
Chatenay-Malabry
France
;
'Chourou S.'
;
Chatenay-Malabry Ecole Centrale des Arts et Manufactures
Chatenay-Malabry
France
;

# Standardized crystallographic data

_cell_length_a                           6.225
_cell_length_b                           11.592
_cell_length_c                           9.275
_cell_angle_alpha                        90
_cell_angle_beta                         94.57
_cell_angle_gamma                        90
_cell_volume                             667.2
_cell_formula_units_Z                    2
_space_group_IT_number                   11
_space_group_name_H-M_alt                'P 1 21/m 1'
loop_
 _space_group_symop_id
 _space_group_symop_operation_xyz
 1 'x, y, z'
 2 '-x, -y, -z'
 3 '-x, 1/2+y, -z'
 4 'x, 1/2-y, z'
loop_
 _atom_type_symbol
 O
 F
 U
 OH2
 K
loop_
 _atom_site_label
 _atom_site_type_symbol
 _atom_site_symmetry_multiplicity
 _atom_site_Wyckoff_symbol
 _atom_site_fract_x
 _atom_site_fract_y
 _atom_site_fract_z
 _atom_site_occupancy
 O1 O 4 f 0.164 0.608 0.099 1
 F3 F 4 f 0.233 0.09 0.279 1
 F2 F 4 f 0.299 0.622 0.395 1
 O2 O 4 f 0.348 0.01 0.725 1
 U U 4 f 0.4041 0.55845 0.18179 1
 F4 F 4 f 0.425 0.097 0.026 1
 O4 OH2 2 e 0.097 0.25 0.594 1
 K3 K 2 e 0.119 0.25 0.071 1
 K2 K 2 e 0.453 0.25 0.435 1
 F1 F 2 e 0.462 0.25 0.801 1
 O3 OH2 2 e 0.734 0.25 0.209 1
 K1 K 2 c 0 0 0.5 1


_exptl_crystal_colour                    ?
_exptl_crystal_density_meas              ?
_exptl_crystal_density_diffrn            4.11
_cell_measurement_temperature            ?
_cell_measurement_radiation              'X-rays, Mo Ka'
_cell_measurement_reflns_used            ?
_diffrn_ambient_temperature              ?
_diffrn_measurement_device               'automatic diffractometer'
_diffrn_measurement_device_type          Enraf-Nonius
_diffrn_radiation_type                   'X-rays, Mo Ka'
_diffrn_reflns_number                    1530
_exptl_absorpt_coefficient_mu            ?
_exptl_absorpt_correction_type           ?
_computing_structure_solution            'Patterson and Fourier synthesis'
_refine_ls_number_parameters             ?
_refine_ls_number_reflns                 ?
_refine_ls_R_factor_gt                   0.069
_refine_ls_wR_factor_gt                  ?

# End of data set 307885


