##############################################################################
#                                                                            #
# Al-K-O           # K3AlO3                                        #  307884 #
#                                                                            #
##############################################################################
#                                                                            #
#                           Pearson's Crystal Data                           #
#      Crystal Structure Database for Inorganic Compounds (on DVD)           #
#                              Release 2017/18                               #
#                  Editors: Pierre Villars and Karin Cenzual                 #
#                                                                            #
#   Copyright (c) ASM International & Material Phases Data System (MPDS),    #
# Switzerland & National Institute for Materials Science (NIMS), Japan, 2017 #
#                   All rights reserved. Version 2017.08                     #
#                                                                            #
#   This copy of Pearson's Crystal Data is licensed to:                      #
#   University of Alberta, Chemistry Department, 1-5 Installations License         #
#                                                                            #
##############################################################################

data_307884
_audit_creation_date                     2017-12-01
_audit_creation_method
;
Pearson's Crystal Data browser
;
#_database_code_PCD                      307884

# Entry summary

_chemical_formula_structural             'K~3~ Al O~3~'
_chemical_formula_sum                    'Al K3 O3'
_chemical_name_mineral                   ?
_chemical_compound_source                ?
_chemical_name_structure_type            Rb~3~InS~3~,mS28,12
_chemical_formula_weight                 192.3

# Bibliographic data

_publ_section_title
;
Synth\`ese et structure cristalline d'un nouvel aluminate de potassium
;
_journal_coden_ASTM                      CHDCAQ
_journal_name_full                       'C. R. Seances Acad. Sci., Ser. C'
_journal_year                            1974
_journal_volume                          278
_journal_page_first                      785
_journal_page_last                       788
_journal_language                        French
loop_
 _publ_author_name
 _publ_author_address
'Bon A.'
;
Grenoble
France
;
'Gleitzer C.'
;
Vandoeuvre-l\`es-Nancy I Henri Poincar\'e University
Vandoeuvre-l\`es-Nancy
France
;
'Courtois A.'
;
Vandoeuvre-l\`es-Nancy I Henri Poincar\'e University
Vandoeuvre-l\`es-Nancy
France
;
'Protas J.'
;
Vandoeuvre-l\`es-Nancy I Henri Poincar\'e University
Vandoeuvre-l\`es-Nancy
France
;

# Standardized crystallographic data

_cell_length_a                           6.97
_cell_length_b                           11.01
_cell_length_c                           6.45
_cell_angle_alpha                        90
_cell_angle_beta                         102.5
_cell_angle_gamma                        90
_cell_volume                             483.2
_cell_formula_units_Z                    4
_space_group_IT_number                   12
_space_group_name_H-M_alt                'C 1 2/m 1'
loop_
 _space_group_symop_id
 _space_group_symop_operation_xyz
 1 'x, y, z'
 2 '-x, -y, -z'
 3 '-x, y, -z'
 4 'x, -y, z'
 5 '1/2+x, 1/2+y, z'
 6 '1/2-x, 1/2-y, -z'
 7 '1/2-x, 1/2+y, -z'
 8 '1/2+x, 1/2-y, z'
loop_
 _atom_type_symbol
 O
 Al
 K
loop_
 _atom_site_label
 _atom_site_type_symbol
 _atom_site_symmetry_multiplicity
 _atom_site_Wyckoff_symbol
 _atom_site_fract_x
 _atom_site_fract_y
 _atom_site_fract_z
 _atom_site_occupancy
 O2 O 8 j 0.222 0.37 0.236 1
 O1 O 4 i 0.084 0 0.364 1
 Al Al 4 i 0.157 0 0.636 1
 K3 K 4 i 0.366 0 0.163 1
 K1 K 4 h 0 0.272 0.5 1
 K2 K 4 g 0 0.202 0 1


_exptl_crystal_colour                    white
_exptl_crystal_density_meas              ?
_exptl_crystal_density_diffrn            2.64
_cell_measurement_temperature            ?
_cell_measurement_radiation              'X-rays, Co Ka'
_cell_measurement_reflns_used            ?
_diffrn_ambient_temperature              ?
_diffrn_measurement_device               'Bohlin-Seemann film'
_diffrn_measurement_device_type          ?
_diffrn_radiation_type                   'X-rays, Co Ka'
_diffrn_reflns_number                    ?
_exptl_absorpt_coefficient_mu            ?
_exptl_absorpt_correction_type           ?
_computing_structure_solution            'starting values from the literature'
_refine_ls_number_parameters             ?
_refine_ls_number_reflns                 ?
_refine_ls_R_factor_gt                   0.08
_refine_ls_wR_factor_gt                  ?
_pd_proc_ls_proof_R_factor               ?
_pd_proc_ls_proof_wR_factor              ?
_refine_ls_R_I_factor                    ?

# Published diffraction lines

loop_
 _refln_index_h
 _refln_index_k
 _refln_index_l
 _refln_d_spacing
 _refln_intensity_meas
 0 2 0 55.1 3
 -1 1 1 47.1 16
 2 0 0 34 7
 -2 0 1 33 3
 0 0 2 31.5 3
 -1 1 2 30 24
 2 2 0 28.94 32
 -2 2 1 28.28 10
 1 3 1 27.62 100
 0 2 2 27.31 42
 -2 0 2 26.08 16
 1 1 2 25.72 2
 0 4 1 25.22 5
 2 2 1 24.62 8
 -1 3 2 23.81 2
 -2 2 2 23.56 25
 -3 1 1 22.46 28
 3 1 0 22.24 28
 1 3 2 21.46 16
 2 4 0 21.38 16
 -2 4 1 21.15 8
 -1 1 3 20.97 31
 1 5 0 20.94 31
 0 4 2 20.73 5

# End of data set 307884


