##############################################################################
#                                                                            #
# Eu-F-K           # K3EuF6 ht1                                    #  307732 #
#                                                                            #
##############################################################################
#                                                                            #
#                           Pearson's Crystal Data                           #
#      Crystal Structure Database for Inorganic Compounds (on DVD)           #
#                              Release 2017/18                               #
#                  Editors: Pierre Villars and Karin Cenzual                 #
#                                                                            #
#   Copyright (c) ASM International & Material Phases Data System (MPDS),    #
# Switzerland & National Institute for Materials Science (NIMS), Japan, 2017 #
#                   All rights reserved. Version 2017.08                     #
#                                                                            #
#   This copy of Pearson's Crystal Data is licensed to:                      #
#   University of Alberta, Chemistry Department, 1-5 Installations License         #
#                                                                            #
##############################################################################

data_307732
_audit_creation_date                     2017-12-01
_audit_creation_method
;
Pearson's Crystal Data browser
;
#_database_code_PCD                      307732

# Entry summary

_chemical_formula_structural             'K~3~ Eu F~6~'
_chemical_formula_sum                    'Eu F6 K3'
_chemical_name_mineral                   ?
_chemical_compound_source                ?
_chemical_name_structure_type            Na~3~AlF~6~,mP20,14
_chemical_formula_weight                 383.2
_chemical_melting_point                  1071

# Bibliographic data

_publ_section_title                      'Le syst\`eme KF-EuF~3~'
_journal_coden_ASTM                      CHDCAQ
_journal_name_full                       'C. R. Seances Acad. Sci., Ser. C'
_journal_year                            1977
_journal_volume                          284
_journal_page_first                      129
_journal_page_last                       132
_journal_language                        French
loop_
 _publ_author_name
 _publ_author_address
'Arbus A.'
;
Aubi\`ere Clermont-Ferrand II University
Laboratoire de Chimie Min\'erale
Aubi\`ere
France
;
'Picaud B.'
;
Aubi\`ere Clermont-Ferrand II University
Aubi\`ere
France
;
'Fournier M.T.'
;
Aubi\`ere Clermont-Ferrand II University
Aubi\`ere
France
;
'Cousseins J.C.'
;
Aubi\`ere Clermont-Ferrand II University
Aubi\`ere
France
;

# Standardized crystallographic data

_cell_length_a                           6.4
_cell_length_b                           6.6
_cell_length_c                           11.1907
_cell_angle_alpha                        90
_cell_angle_beta                         124.883
_cell_angle_gamma                        90
_cell_volume                             387.8
_cell_formula_units_Z                    2
_space_group_IT_number                   14
_space_group_name_H-M_alt                'P 1 21/c 1'
loop_
 _space_group_symop_id
 _space_group_symop_operation_xyz
 1 'x, y, z'
 2 '-x, -y, -z'
 3 '-x, 1/2+y, 1/2-z'
 4 'x, 1/2-y, 1/2+z'

# Atomic positions taken from type-defining entry

loop_
 _atom_type_symbol
 F
 K
 Eu
loop_
 _atom_site_label
 _atom_site_type_symbol
 _atom_site_symmetry_multiplicity
 _atom_site_Wyckoff_symbol
 _atom_site_fract_x
 _atom_site_fract_y
 _atom_site_fract_z
 _atom_site_occupancy
 F1 F 4 e 0.116 0.0442 0.2196 1
 F2 F 4 e 0.2302 0.7317 0.0609 1
 K1 K 4 e 0.2631 0.4489 0.2512 1
 F3 F 4 e 0.3168 0.1741 0.0425 1
 K2 K 2 d 0.5 0 0.5 1
 Eu1 Eu 2 a 0 0 0 1


_exptl_crystal_colour                    ?
_exptl_crystal_density_meas              3.38
_exptl_crystal_density_diffrn            3.28
_cell_measurement_temperature            ?
_cell_measurement_radiation              X-rays
_cell_measurement_reflns_used            ?
_diffrn_ambient_temperature              ?
_diffrn_measurement_device               film
_diffrn_measurement_device_type          ?
_diffrn_radiation_type                   ?
_diffrn_reflns_number                    ?
_exptl_absorpt_coefficient_mu            ?
_exptl_absorpt_correction_type           ?
_computing_structure_solution            ?
_refine_ls_number_parameters             ?
_refine_ls_number_reflns                 ?
_refine_ls_R_factor_gt                   ?
_refine_ls_wR_factor_gt                  ?

# End of data set 307732


