##############################################################################
#                                                                            #
# Ge-K-S           # K3GeS3                                        #  462387 #
#                                                                            #
##############################################################################
#                                                                            #
#                           Pearson's Crystal Data                           #
#      Crystal Structure Database for Inorganic Compounds (on DVD)           #
#                              Release 2017/18                               #
#                  Editors: Pierre Villars and Karin Cenzual                 #
#                                                                            #
#   Copyright (c) ASM International & Material Phases Data System (MPDS),    #
# Switzerland & National Institute for Materials Science (NIMS), Japan, 2017 #
#                   All rights reserved. Version 2017.08                     #
#                                                                            #
#   This copy of Pearson's Crystal Data is licensed to:                      #
#   University of Alberta, Chemistry Department, 1-5 Installations License         #
#                                                                            #
##############################################################################

data_462387
_audit_creation_date                     2017-12-01
_audit_creation_method
;
Pearson's Crystal Data browser
;
#_database_code_PCD                      462387

# Entry summary

_chemical_formula_structural             'K~3~ Ge S~3~'
_chemical_formula_sum                    'Ge K3 S3'
_chemical_name_mineral                   ?
_chemical_compound_source                ?
_chemical_name_structure_type            K~3~SiTe~3~,mS28,12
_chemical_formula_weight                 286.1

# Bibliographic data

_publ_section_title
;
\"Uber Thio-, Selenido- und Telluridogermanate(III): Zur Kenntnis von K~6~Ge~2~S~6~, K~6~Ge~2~Se~6~ und Na~6~Ge~2~Te~6~
;
_journal_coden_ASTM                      ZAACAB
_journal_name_full                       'Z. Anorg. Allg. Chem.'
_journal_year                            1984
_journal_volume                          516
_journal_page_first                      49
_journal_page_last                       54
_journal_language                        German
loop_
 _publ_author_name
 _publ_author_address
'Eisenmann B.'
;
Darmstadt University of Technology
Eduard Zintl Institut
Darmstadt
Germany
;
'Kieselbach E.'
;
Darmstadt University of Technology
Eduard Zintl Institut
Darmstadt
Germany
;
'Sch\"afer H.'
;
Darmstadt University of Technology
Eduard Zintl Institut
Darmstadt
Germany
;
'Schrod H.'
;
Darmstadt University of Technology
Eduard Zintl Institut
Darmstadt
Germany
;

# Standardized crystallographic data

_cell_length_a                           8.705
_cell_length_b                           12.346
_cell_length_c                           8.224
_cell_angle_alpha                        90
_cell_angle_beta                         116.62
_cell_angle_gamma                        90
_cell_volume                             790.2
_cell_formula_units_Z                    4
_space_group_IT_number                   12
_space_group_name_H-M_alt                'C 1 2/m 1'
loop_
 _space_group_symop_id
 _space_group_symop_operation_xyz
 1 'x, y, z'
 2 '-x, -y, -z'
 3 '-x, y, -z'
 4 'x, -y, z'
 5 '1/2+x, 1/2+y, z'
 6 '1/2-x, 1/2-y, -z'
 7 '1/2-x, 1/2+y, -z'
 8 '1/2+x, 1/2-y, z'
loop_
 _atom_type_symbol
 S
 Ge
 K
loop_
 _atom_site_label
 _atom_site_type_symbol
 _atom_site_symmetry_multiplicity
 _atom_site_Wyckoff_symbol
 _atom_site_fract_x
 _atom_site_fract_y
 _atom_site_fract_z
 _atom_site_occupancy
 S2 S 8 j 0.0968 0.1469 0.2993 1
 Ge1 Ge 4 i 0.1177 0 0.1551 1
 K2 K 4 i 0.219 0 0.6864 1
 S1 S 4 i 0.3681 0 0.1426 1
 K3 K 4 h 0 0.3318 0.5 1
 K1 K 4 e 0.25 0.25 0 1


_exptl_crystal_colour                    colorless
_exptl_crystal_density_meas              2.31
_exptl_crystal_density_diffrn            2.40
_cell_measurement_temperature            ?
_cell_measurement_radiation              'X-rays, Mo Ka'
_cell_measurement_reflns_used            25
_diffrn_ambient_temperature              ?
_diffrn_measurement_device               'automatic diffractometer'
_diffrn_measurement_device_type          'Philips PW1100'
_diffrn_radiation_type                   'X-rays, Mo Ka'
_diffrn_reflns_number                    1128
_diffrn_reflns_theta_min                 2.5
_diffrn_reflns_theta_max                 30
_exptl_absorpt_coefficient_mu            5.919
_exptl_absorpt_correction_type           analytical
_computing_structure_solution            'Patterson and Fourier synthesis'
_refine_ls_number_parameters             39
_refine_ls_number_reflns                 1045
_refine_ls_R_factor_gt                   0.033
_refine_ls_wR_factor_gt                  ?

# End of data set 462387


