##############################################################################
#                                                                            #
# K-Sn-Te          # K3SnTe3                                       #  540969 #
#                                                                            #
##############################################################################
#                                                                            #
#                           Pearson's Crystal Data                           #
#      Crystal Structure Database for Inorganic Compounds (on DVD)           #
#                              Release 2017/18                               #
#                  Editors: Pierre Villars and Karin Cenzual                 #
#                                                                            #
#   Copyright (c) ASM International & Material Phases Data System (MPDS),    #
# Switzerland & National Institute for Materials Science (NIMS), Japan, 2017 #
#                   All rights reserved. Version 2017.08                     #
#                                                                            #
#   This copy of Pearson's Crystal Data is licensed to:                      #
#   University of Alberta, Chemistry Department, 1-5 Installations License         #
#                                                                            #
##############################################################################

data_540969
_audit_creation_date                     2017-12-04
_audit_creation_method
;
Pearson's Crystal Data browser
;
#_database_code_PCD                      540969

# Entry summary

_chemical_formula_structural             'K~3~ Sn Te~3~'
_chemical_formula_sum                    'K3 Sn Te3'
_chemical_name_mineral                   ?
_chemical_compound_source                ?
_chemical_name_structure_type            K~3~SnTe~3~,mP28,14
_chemical_formula_weight                 618.8

# Bibliographic data

_publ_section_title
;
Crystal strycture of K~6~[Ge~2~Te~6~] and K~6~[Sn~2~Te~6~] and their relations to the K~6~[Si~2~Te~6~] type
;
_journal_coden_ASTM                      ZAACAB
_journal_name_full                       'Z. Anorg. Allg. Chem.'
_journal_year                            1979
_journal_volume                          453
_journal_page_first                      68
_journal_page_last                       78
_journal_language                        German
loop_
 _publ_author_name
 _publ_author_address
'Dittmar G.'
;
Darmstadt University of Technology
Institut f\"ur Anorganische Chemie
Darmstadt
Germany
;

# Standardized crystallographic data

_cell_length_a                           9.59
_cell_length_b                           13.654
_cell_length_c                           9.606
_cell_angle_alpha                        90
_cell_angle_beta                         116.84
_cell_angle_gamma                        90
_cell_volume                             1122.3
_cell_formula_units_Z                    4
_space_group_IT_number                   14
_space_group_name_H-M_alt                'P 1 21/c 1'
loop_
 _space_group_symop_id
 _space_group_symop_operation_xyz
 1 'x, y, z'
 2 '-x, -y, -z'
 3 '-x, 1/2+y, 1/2-z'
 4 'x, 1/2-y, 1/2+z'
loop_
 _atom_type_symbol
 K
 Te
 Sn
loop_
 _atom_site_label
 _atom_site_type_symbol
 _atom_site_symmetry_multiplicity
 _atom_site_Wyckoff_symbol
 _atom_site_fract_x
 _atom_site_fract_y
 _atom_site_fract_z
 _atom_site_occupancy
 K(1) K 4 e 0.0548 0.7819 0.2033 1
 Te(1) Te 4 e 0.1447 0.5248 0.3988 1
 Sn Sn 4 e 0.1526 0.492 0.1222 1
 Te(2) Te 4 e 0.2603 0.3079 0.1177 1
 K(2) K 4 e 0.2762 0.0654 0.2929 1
 Te(3) Te 4 e 0.3283 0.6329 0.0748 1
 K(3) K 4 e 0.4982 0.1569 0.0109 1


_exptl_crystal_colour                    'black gray'
_exptl_crystal_density_meas              3.66
_exptl_crystal_density_diffrn            3.66
_cell_measurement_temperature            ?
_cell_measurement_radiation              'X-rays, Mo Ka'
_cell_measurement_reflns_used            ?
_diffrn_ambient_temperature              ?
_diffrn_measurement_device               'automatic diffractometer'
_diffrn_measurement_device_type          'STOE STADI 4'
_diffrn_radiation_type                   'X-rays, Mo Ka'
_diffrn_reflns_number                    ?
_exptl_absorpt_coefficient_mu            10.258
_exptl_absorpt_correction_type           no
_computing_structure_solution            'Patterson and Fourier synthesis'
_refine_ls_number_parameters             ?
_refine_ls_number_reflns                 ?
_refine_ls_R_factor_gt                   0.047
_refine_ls_wR_factor_gt                  ?

# End of data set 540969


