##############################################################################
#                                                                            #
# Co-K-S           # K6CoS4                                        #  539192 #
#                                                                            #
##############################################################################
#                                                                            #
#                           Pearson's Crystal Data                           #
#      Crystal Structure Database for Inorganic Compounds (on DVD)           #
#                              Release 2017/18                               #
#                  Editors: Pierre Villars and Karin Cenzual                 #
#                                                                            #
#   Copyright (c) ASM International & Material Phases Data System (MPDS),    #
# Switzerland & National Institute for Materials Science (NIMS), Japan, 2017 #
#                   All rights reserved. Version 2017.08                     #
#                                                                            #
#   This copy of Pearson's Crystal Data is licensed to:                      #
#   University of Alberta, Chemistry Department, 1-5 Installations License         #
#                                                                            #
##############################################################################

data_539192
_audit_creation_date                     2017-12-04
_audit_creation_method
;
Pearson's Crystal Data browser
;
#_database_code_PCD                      539192

# Entry summary

_chemical_formula_structural             'K~6~ Co S~4~'
_chemical_formula_sum                    'Co K6 S4'
_chemical_name_mineral                   ?
_chemical_compound_source                ?
_chemical_name_structure_type            Na~6~ZnO~4~,hP22,186
_chemical_formula_weight                 421.8

# Bibliographic data

_publ_section_title
;
Darstellung und Struktur von Alkalimetallcobaltchalcogeniden A~6~CoX~4~ (A= Na oder K, X= S oder Se) mit isolierten [CoX~4~]-Anionen
;
_journal_coden_ASTM                      JCOMAH
_journal_name_full                       'J. Less-Common Met.'
_journal_year                            1990
_journal_volume                          162
_journal_page_first                      309
_journal_page_last                       314
_journal_language                        German
loop_
 _publ_author_name
 _publ_author_address
'Bronger W.'
;
Aachen RWTH University
Institut f\"ur Anorganische Chemie
Aachen
Germany
;
'Bomba C.'
;
Aachen RWTH University
Institut f\"ur Anorganische Chemie
Aachen
Germany
;

# Standardized crystallographic data

_cell_length_a                           9.787
_cell_length_b                           9.787
_cell_length_c                           7.614
_cell_angle_alpha                        90
_cell_angle_beta                         90
_cell_angle_gamma                        120
_cell_volume                             631.6
_cell_formula_units_Z                    2
_space_group_IT_number                   186
_space_group_name_H-M_alt                'P 63 m c'
loop_
 _space_group_symop_id
 _space_group_symop_operation_xyz
 1 'x, y, z'
 2 '-x+y, -x, z'
 3 '-x+y, y, z'
 4 '-x, -x+y, 1/2+z'
 5 '-x, -y, 1/2+z'
 6 '-y, -x, z'
 7 '-y, x-y, z'
 8 'x, x-y, z'
 9 'x-y, -y, 1/2+z'
 10 'x-y, x, 1/2+z'
 11 'y, -x+y, 1/2+z'
 12 'y, x, 1/2+z'
loop_
 _atom_type_symbol
 K
 S
 Co
loop_
 _atom_site_label
 _atom_site_type_symbol
 _atom_site_symmetry_multiplicity
 _atom_site_Wyckoff_symbol
 _atom_site_fract_x
 _atom_site_fract_y
 _atom_site_fract_z
 _atom_site_occupancy
 K1 K 6 c 0.1462 0.8538 0.2962 1
 K2 K 6 c 0.5281 0.4719 0.1155 1
 S2 S 6 c 0.8014 0.1986 0.4023 1
 Co Co 2 b 0.333333 0.666667 0.0 1
 S1 S 2 b 0.333333 0.666667 0.3151 1


_exptl_crystal_colour                    green
_exptl_crystal_density_meas              ?
_exptl_crystal_density_diffrn            2.22
_cell_measurement_temperature            ?
_cell_measurement_radiation              'X-rays, Cu Ka'
_cell_measurement_reflns_used            ?
_diffrn_ambient_temperature              ?
_diffrn_measurement_device               'automatic diffractometer'
_diffrn_measurement_device_type          'Enraf-Nonius CAD4'
_diffrn_radiation_type                   'X-rays, Ag Ka'
_diffrn_reflns_number                    ?
_diffrn_reflns_theta_min                 1
_diffrn_reflns_theta_max                 24
_exptl_absorpt_coefficient_mu            ?
_exptl_absorpt_correction_type           ?
_computing_structure_solution            'starting values from the literature'
_refine_ls_number_parameters             ?
_refine_ls_number_reflns                 ?
_refine_ls_R_factor_gt                   0.021
_refine_ls_wR_factor_gt                  ?

# End of data set 539192


