##############################################################################
#                                                                            #
# Hg-K-Se          # K6HgSe4                                       #  540955 #
#                                                                            #
##############################################################################
#                                                                            #
#                           Pearson's Crystal Data                           #
#      Crystal Structure Database for Inorganic Compounds (on DVD)           #
#                              Release 2017/18                               #
#                  Editors: Pierre Villars and Karin Cenzual                 #
#                                                                            #
#   Copyright (c) ASM International & Material Phases Data System (MPDS),    #
# Switzerland & National Institute for Materials Science (NIMS), Japan, 2017 #
#                   All rights reserved. Version 2017.08                     #
#                                                                            #
#   This copy of Pearson's Crystal Data is licensed to:                      #
#   University of Alberta, Chemistry Department, 1-5 Installations License         #
#                                                                            #
##############################################################################

data_540955
_audit_creation_date                     2017-12-04
_audit_creation_method
;
Pearson's Crystal Data browser
;
#_database_code_PCD                      540955

# Entry summary

_chemical_formula_structural             'K~6~ Hg Se~4~'
_chemical_formula_sum                    'Hg K6 Se4'
_chemical_name_mineral                   ?
_chemical_compound_source                ?
_chemical_name_structure_type            Na~6~ZnO~4~,hP22,186
_chemical_formula_weight                 751.0

# Bibliographic data

_publ_section_title
;
Thio- and selenomercurates(II). K~6~[HgS~4~], K~6~[HgSe~4~], Rb~6~[HgS~4~], and Rb~6~[HgSe~4~]
;
_journal_coden_ASTM                      ZAACAB
_journal_name_full                       'Z. Anorg. Allg. Chem.'
_journal_year                            1978
_journal_volume                          443
_journal_page_first                      201
_journal_page_last                       211
_journal_language                        German
loop_
 _publ_author_name
 _publ_author_address
'Sommer H.'
;
Giessen Justus Liebig University
Institut f\"ur Anorganische und Analytische Chemie
Giessen
Germany
;
'Hoppe R.'
;
Giessen Justus Liebig University
Institut f\"ur Anorganische und Analytische Chemie
Giessen
Germany
;

# Standardized crystallographic data

_cell_length_a                           10.36
_cell_length_b                           10.36
_cell_length_c                           7.883
_cell_angle_alpha                        90
_cell_angle_beta                         90
_cell_angle_gamma                        120
_cell_volume                             732.7
_cell_formula_units_Z                    2
_space_group_IT_number                   186
_space_group_name_H-M_alt                'P 63 m c'
loop_
 _space_group_symop_id
 _space_group_symop_operation_xyz
 1 'x, y, z'
 2 '-x+y, -x, z'
 3 '-x+y, y, z'
 4 '-x, -x+y, 1/2+z'
 5 '-x, -y, 1/2+z'
 6 '-y, -x, z'
 7 '-y, x-y, z'
 8 'x, x-y, z'
 9 'x-y, -y, 1/2+z'
 10 'x-y, x, 1/2+z'
 11 'y, -x+y, 1/2+z'
 12 'y, x, 1/2+z'

# Atomic positions taken from type-defining entry

loop_
 _atom_type_symbol
 K
 Se
 Hg
loop_
 _atom_site_label
 _atom_site_type_symbol
 _atom_site_symmetry_multiplicity
 _atom_site_Wyckoff_symbol
 _atom_site_fract_x
 _atom_site_fract_y
 _atom_site_fract_z
 _atom_site_occupancy
 K1 K 6 c 0.1414 0.8586 0.286 1
 K2 K 6 c 0.537 0.463 0.114 1
 Se1 Se 6 c 0.8105 0.1895 0.392 1
 Hg1 Hg 2 b 0.333333 0.666667 0.0 1
 Se2 Se 2 b 0.333333 0.666667 0.348 1


_exptl_crystal_colour                    'orange yellow'
_exptl_crystal_density_meas              3.40
_exptl_crystal_density_diffrn            3.40
_cell_measurement_temperature            ?
_cell_measurement_radiation              'X-rays, Cu Ka'
_cell_measurement_reflns_used            ?
_diffrn_ambient_temperature              ?
_diffrn_measurement_device               'Guinier-Simon film'
_diffrn_measurement_device_type          ?
_diffrn_radiation_type                   ?
_diffrn_reflns_number                    ?
_exptl_absorpt_coefficient_mu            ?
_exptl_absorpt_correction_type           ?
_computing_structure_solution            ?
_refine_ls_number_parameters             ?
_refine_ls_number_reflns                 ?
_refine_ls_R_factor_gt                   ?
_refine_ls_wR_factor_gt                  ?

# Published diffraction lines

loop_
 _refln_index_h
 _refln_index_k
 _refln_index_l
 _refln_d_spacing
 _refln_intensity_meas
 1 0 0 74.7 8.0
 1 0 1 160.8 10.00
 1 1 0 221.4 2.5
 2 0 0 295.2 3.5
 0 0 2 382.6 2.0
 2 0 1 390.9 1.0
 2 1 0 519.4 0.5
 1 0 2 545.4 2.0
 1 1 2 603.7 2.0
 2 1 1 611.1 7.0
 2 0 2 677.2 6.0
 3 0 1 758.6 2.5
 2 2 0 884.8 9.0
 2 1 2 897.5 1.5
 1 0 3 933.9 3.5
 3 1 0 958.3 1.0
 3 0 2 1040.5 1.5
 3 1 1 1053.2 2.0
 2 0 3 1154.9 4.0
 4 0 0 1183.2 1.0
 2 2 2 1267.7 2.0
 3 1 2 1330.7 1.0
 2 1 3 1378 3.5
 3 2 0 1402.6 1.5
 3 2 1 1496.5 3.0
 3 0 3 1520.8 1.0
 4 1 0 1546.8 1.0
 4 0 2 1561.4 1.5
 4 1 1 1644.8 1.5
 1 1 4 1750.7 1.5
 3 2 2 1785.9 2.0
 3 1 3 1820.1 3.0
 4 1 2 1933.9 1.5
 3 3 0 1980.6 1.5
 4 0 3 2041.6 2.0
 4 2 0 2065.5 1.0
 3 0 4 2103.6 1.5
 5 0 2 2226.4 1.0
 3 2 3 2262.4 3.5

# End of data set 540955


