##############################################################################
#                                                                            #
# Hg-K-S           # K6HgS4                                        #  540952 #
#                                                                            #
##############################################################################
#                                                                            #
#                           Pearson's Crystal Data                           #
#      Crystal Structure Database for Inorganic Compounds (on DVD)           #
#                              Release 2017/18                               #
#                  Editors: Pierre Villars and Karin Cenzual                 #
#                                                                            #
#   Copyright (c) ASM International & Material Phases Data System (MPDS),    #
# Switzerland & National Institute for Materials Science (NIMS), Japan, 2017 #
#                   All rights reserved. Version 2017.08                     #
#                                                                            #
#   This copy of Pearson's Crystal Data is licensed to:                      #
#   University of Alberta, Chemistry Department, 1-5 Installations License         #
#                                                                            #
##############################################################################

data_540952
_audit_creation_date                     2017-12-04
_audit_creation_method
;
Pearson's Crystal Data browser
;
#_database_code_PCD                      540952

# Entry summary

_chemical_formula_structural             'K~6~ Hg S~4~'
_chemical_formula_sum                    'Hg K6 S4'
_chemical_name_mineral                   ?
_chemical_compound_source                ?
_chemical_name_structure_type            Na~6~ZnO~4~,hP22,186
_chemical_formula_weight                 563.4

# Bibliographic data

_publ_section_title
;
Thio- and selenomercurates(II). K~6~[HgS~4~], K~6~[HgSe~4~], Rb~6~[HgS~4~], and Rb~6~[HgSe~4~]
;
_journal_coden_ASTM                      ZAACAB
_journal_name_full                       'Z. Anorg. Allg. Chem.'
_journal_year                            1978
_journal_volume                          443
_journal_page_first                      201
_journal_page_last                       211
_journal_language                        German
loop_
 _publ_author_name
 _publ_author_address
'Sommer H.'
;
Giessen Justus Liebig University
Institut f\"ur Anorganische und Analytische Chemie
Giessen
Germany
;
'Hoppe R.'
;
Giessen Justus Liebig University
Institut f\"ur Anorganische und Analytische Chemie
Giessen
Germany
;

# Standardized crystallographic data

_cell_length_a                           9.985
_cell_length_b                           9.985
_cell_length_c                           7.652
_cell_angle_alpha                        90
_cell_angle_beta                         90
_cell_angle_gamma                        120
_cell_volume                             660.7
_cell_formula_units_Z                    2
_space_group_IT_number                   186
_space_group_name_H-M_alt                'P 63 m c'
loop_
 _space_group_symop_id
 _space_group_symop_operation_xyz
 1 'x, y, z'
 2 '-x+y, -x, z'
 3 '-x+y, y, z'
 4 '-x, -x+y, 1/2+z'
 5 '-x, -y, 1/2+z'
 6 '-y, -x, z'
 7 '-y, x-y, z'
 8 'x, x-y, z'
 9 'x-y, -y, 1/2+z'
 10 'x-y, x, 1/2+z'
 11 'y, -x+y, 1/2+z'
 12 'y, x, 1/2+z'
loop_
 _atom_type_symbol
 K
 S
 Hg
loop_
 _atom_site_label
 _atom_site_type_symbol
 _atom_site_symmetry_multiplicity
 _atom_site_Wyckoff_symbol
 _atom_site_fract_x
 _atom_site_fract_y
 _atom_site_fract_z
 _atom_site_occupancy
 K1 K 6 c 0.147 0.853 0.296 1
 K2 K 6 c 0.528 0.472 0.124 1
 S2 S 6 c 0.809 0.191 0.395 1
 Hg Hg 2 b 0.333333 0.666667 0.0 1
 S1 S 2 b 0.333333 0.666667 0.332 1


_exptl_crystal_colour                    'yellow lemon'
_exptl_crystal_density_meas              2.99
_exptl_crystal_density_diffrn            2.83
_cell_measurement_temperature            ?
_cell_measurement_radiation              'X-rays, Cu Ka'
_cell_measurement_reflns_used            ?
_diffrn_ambient_temperature              ?
_diffrn_measurement_device               'automatic diffractometer'
_diffrn_measurement_device_type          STOE
_diffrn_radiation_type                   'X-rays, Mo Ka'
_diffrn_reflns_number                    ?
_exptl_absorpt_coefficient_mu            ?
_exptl_absorpt_correction_type           ?
_computing_structure_solution            'starting values from the literature'
_refine_ls_number_parameters             ?
_refine_ls_number_reflns                 ?
_refine_ls_R_factor_gt                   0.066
_refine_ls_wR_factor_gt                  ?

# Published diffraction lines

loop_
 _refln_index_h
 _refln_index_k
 _refln_index_l
 _refln_d_spacing
 _refln_intensity_meas
 1 0 0 81.4 7.5
 1 0 1 181.9 10.0
 1 1 0 238.6 3.5
 2 0 0 317.7 1.8
 0 0 2 406.2 0.5
 2 0 1 419.9 2.5
 1 0 2 480.4 3.0
 2 1 0 556.2 2.0
 1 1 2 644.9 4.0
 2 1 1 658.1 8.0
 2 0 2 724.4 5.0
 3 0 1 817.6 2.0
 2 2 0 952.3 8.0
 1 0 3 992.3 4.0
 3 1 0 1032 1.0
 3 0 2 1120.1 3.0
 3 1 1 1136.5 3.0
 2 0 3 1231.1 3.0
 4 0 0 1273 0.5
 2 2 2 1359 1.0
 4 0 1 1372.1 1.0
 3 1 2 1439 1.5
 2 1 3 1469 4.0
 3 2 0 1512.8 0.5
 3 2 1 1609.7 2.5
 3 0 3 1628.2 1.0
 4 1 0 1671.3 1.0
 4 1 1 1770.8 0.5
 1 1 4 1862.3 2.0
 3 2 2 1915.3 2.5
 3 1 3 1944.7 3.0
 4 1 2 2071.9 3.5
 5 0 1 2088 3.0
 3 3 0 2146 2.0
 2 1 4 2182.4 1.0
 4 2 0 2223.4 0.5
 4 2 1 2328.5 1.0
 3 0 4 2340.8 2.0
 5 0 2 2393.9 0.5
 3 2 3 2422.6 3.5
 5 1 1 2504.3 1.5

# End of data set 540952


