##############################################################################
#                                                                            #
# Cl-K-O           # K[ClO3] rt                                    # 1005006 #
#                                                                            #
##############################################################################
#                                                                            #
#                           Pearson's Crystal Data                           #
#      Crystal Structure Database for Inorganic Compounds (on DVD)           #
#                              Release 2017/18                               #
#                  Editors: Pierre Villars and Karin Cenzual                 #
#                                                                            #
#   Copyright (c) ASM International & Material Phases Data System (MPDS),    #
# Switzerland & National Institute for Materials Science (NIMS), Japan, 2017 #
#                   All rights reserved. Version 2017.08                     #
#                                                                            #
#   This copy of Pearson's Crystal Data is licensed to:                      #
#   University of Alberta, Chemistry Department, 1-5 Installations License         #
#                                                                            #
##############################################################################

data_1005006
_audit_creation_date                     2017-12-04
_audit_creation_method
;
Pearson's Crystal Data browser
;
#_database_code_PCD                      1005006

# Entry summary

_chemical_formula_structural             'K [Cl O~3~]'
_chemical_formula_sum                    'Cl K O3'
_chemical_name_mineral                   ?
_chemical_compound_source                ?
_chemical_name_structure_type            K[ClO~3~],mP10,11
_chemical_formula_weight                 122.5

# Bibliographic data

_publ_section_title
'The Crystal Structure of Potassium Chlorate'                                 
_journal_coden_ASTM                      ZKKKAJ
_journal_name_full                       'Z. Kristallogr.'
_journal_year                            1929
_journal_volume                          71
_journal_page_first                      501
_journal_page_last                       516
_journal_language                        English
loop_
 _publ_author_name
 _publ_author_address
'Zachariasen W.H.'
;
Manchester University
Department of Physics
Manchester
United Kingdom
;

# Standardized crystallographic data

_cell_length_a                           4.647
_cell_length_b                           5.585
_cell_length_c                           7.0477
_cell_angle_alpha                        90
_cell_angle_beta                         108.762
_cell_angle_gamma                        90
_cell_volume                             173.2
_cell_formula_units_Z                    2
_space_group_IT_number                   11
_space_group_name_H-M_alt                'P 1 21/m 1'
loop_
 _space_group_symop_id
 _space_group_symop_operation_xyz
 1 'x, y, z'
 2 '-x, -y, -z'
 3 '-x, 1/2+y, -z'
 4 'x, 1/2-y, z'
loop_
 _atom_type_symbol
 O
 Cl
 K
loop_
 _atom_site_label
 _atom_site_type_symbol
 _atom_site_symmetry_multiplicity
 _atom_site_Wyckoff_symbol
 _atom_site_fract_x
 _atom_site_fract_y
 _atom_site_fract_z
 _atom_site_occupancy
 O2 O 4 f 0.139 0.028 0.278 1
 Cl Cl 2 e 0.069 0.25 0.175 1
 K K 2 e 0.336 0.25 0.702 1
 O1 O 2 e 0.706 0.25 0.111 1


_exptl_crystal_colour                    ?
_exptl_crystal_density_meas              ?
_exptl_crystal_density_diffrn            2.35
_cell_measurement_temperature            ?
_cell_measurement_radiation              'X-rays, Mo Ka'
_cell_measurement_reflns_used            ?
_diffrn_ambient_temperature              ?
_diffrn_measurement_device               photographs
_diffrn_measurement_device_type          ?
_diffrn_radiation_type                   'X-rays, Mo Ka'
_diffrn_reflns_number                    ?
_exptl_absorpt_coefficient_mu            ?
_exptl_absorpt_correction_type           ?
_computing_structure_solution
'crystal chemical considerations, Fourier synthesis'                          
_refine_ls_number_parameters             ?
_refine_ls_number_reflns                 ?
_refine_ls_R_factor_gt                   ?
_refine_ls_wR_factor_gt                  ?

# End of data set 1005006


