##############################################################################
#                                                                            #
# C-K-N            # K[CN] hp-lt1                                  #  380433 #
#                                                                            #
##############################################################################
#                                                                            #
#                           Pearson's Crystal Data                           #
#      Crystal Structure Database for Inorganic Compounds (on DVD)           #
#                              Release 2017/18                               #
#                  Editors: Pierre Villars and Karin Cenzual                 #
#                                                                            #
#   Copyright (c) ASM International & Material Phases Data System (MPDS),    #
# Switzerland & National Institute for Materials Science (NIMS), Japan, 2017 #
#                   All rights reserved. Version 2017.08                     #
#                                                                            #
#   This copy of Pearson's Crystal Data is licensed to:                      #
#   University of Alberta, Chemistry Department, 1-5 Installations License         #
#                                                                            #
##############################################################################

data_380433
_audit_creation_date                     2017-12-01
_audit_creation_method
;
Pearson's Crystal Data browser
;
#_database_code_PCD                      380433

# Entry summary

_chemical_formula_structural             'K [C N]'
_chemical_formula_sum                    'C K N'
_chemical_name_mineral                   ?
_chemical_compound_source                ?
_chemical_name_structure_type            K[CN],mS12,9
_chemical_formula_weight                 65.1

# Bibliographic data

_publ_section_title
'Elastic neutron scattering investigations of new high-pressure phases of KCN'
_journal_coden_ASTM                      PRBMDO
_journal_name_full
'Phys. Rev. B: Condens. Matter Mater. Phys.'                                  
_journal_year                            1981
_journal_volume                          24
_journal_page_first                      1287
_journal_page_last                       1291
_journal_language                        English
loop_
 _publ_author_name
 _publ_author_address
'Dultz W.'
;
Regensburg University
Institut f\"ur Physik
Regensburg
Germany
;
'Otto H.H.'
;
Regensburg University
Institut f\"ur Physik
Regensburg
Germany
;
'Krause B.H.'
;
Regensburg University
Institut f\"ur Physik
Regensburg
Germany
;
'Buevoz J.L.'
;
Grenoble Laue-Langevin Institute
Grenoble
France
;

# Standardized crystallographic data

_cell_length_a                           7.433
_cell_length_b                           4.606
_cell_length_c                           8.1217
_cell_angle_alpha                        90
_cell_angle_beta                         108.518
_cell_angle_gamma                        90
_cell_volume                             263.7
_cell_formula_units_Z                    4
_space_group_IT_number                   9
_space_group_name_H-M_alt                'C 1 c 1'
loop_
 _space_group_symop_id
 _space_group_symop_operation_xyz
 1 'x, y, z'
 2 'x, -y, 1/2+z'
 3 '1/2+x, 1/2+y, z'
 4 '1/2+x, 1/2-y, 1/2+z'
loop_
 _atom_type_symbol
 N
 C
 K
loop_
 _atom_site_label
 _atom_site_type_symbol
 _atom_site_symmetry_multiplicity
 _atom_site_Wyckoff_symbol
 _atom_site_fract_x
 _atom_site_fract_y
 _atom_site_fract_z
 _atom_site_occupancy
 N N 4 a 0.0 0.168 0.0 1
 C C 4 a 0.046 0.336 0.111 1
 K K 4 a 0.26 0.168 0.754 1


_exptl_crystal_colour                    ?
_exptl_crystal_density_meas              ?
_exptl_crystal_density_diffrn            1.64
_cell_measurement_temperature            150
_cell_measurement_pressure               424000
_cell_measurement_radiation              neutrons
_cell_measurement_wavelength             1.9073
_pd_proc_wavelength                      1.9073
_cell_measurement_reflns_used            ?
_diffrn_ambient_pressure                 424000
_diffrn_ambient_temperature              150
_diffrn_measurement_device               diffractometer
_diffrn_measurement_device_type
'France, Grenoble, Institut Laue-Langevin ILL, D1A'                           
_diffrn_radiation_type                   neutrons
_diffrn_radiation_wavelength             1.9073
_diffrn_reflns_number                    ?
_exptl_absorpt_coefficient_mu            ?
_exptl_absorpt_correction_type           ?
_computing_structure_solution            ?
_refine_ls_number_parameters             ?
_refine_ls_number_reflns                 40
_refine_ls_R_factor_gt                   ?
_refine_ls_wR_factor_gt                  ?
_pd_proc_ls_proof_R_factor               ?
_pd_proc_ls_proof_wR_factor              ?
_refine_ls_R_I_factor                    0.058

# End of data set 380433


