##############################################################################
#                                                                            #
# Cl-H-I-K-O       # K[ICl2][H2O]                                  # 1100208 #
#                                                                            #
##############################################################################
#                                                                            #
#                           Pearson's Crystal Data                           #
#      Crystal Structure Database for Inorganic Compounds (on DVD)           #
#                              Release 2017/18                               #
#                  Editors: Pierre Villars and Karin Cenzual                 #
#                                                                            #
#   Copyright (c) ASM International & Material Phases Data System (MPDS),    #
# Switzerland & National Institute for Materials Science (NIMS), Japan, 2017 #
#                   All rights reserved. Version 2017.08                     #
#                                                                            #
#   This copy of Pearson's Crystal Data is licensed to:                      #
#   University of Alberta, Chemistry Department, 1-5 Installations License         #
#                                                                            #
##############################################################################

data_1100208
_audit_creation_date                     2017-12-04
_audit_creation_method
;
Pearson's Crystal Data browser
;
#_database_code_PCD                      1100208

# Entry summary

_chemical_formula_structural             'K [I Cl~2~] [H~2~ O]'
_chemical_formula_sum                    'Cl2 H2 I K O'
_chemical_name_mineral                   ?
_chemical_compound_source                ?
_chemical_name_structure_type            K[ICl~2~][H~2~O],mP10,11
_chemical_formula_weight                 254.9

# Bibliographic data

_publ_section_title
'The crystal structures of KICl~2~ and KICl~2~.H~2~O'                         
_journal_coden_ASTM                      ACBCAR
_journal_name_full                       'Acta Crystallogr. B'
_journal_year                            1973
_journal_volume                          29
_journal_page_first                      2104
_journal_page_last                       2109
_journal_language                        English
loop_
 _publ_author_name
 _publ_author_address
'Soled S.L.'
;
Rhode Island Providence Brown University
Metcalf Chemical Laboratories
Providence
U.S.A. Rhode Island
;
'Carpenter G.B.'
;
Rhode Island Providence Brown University
Metcalf Chemical Laboratories
Providence
U.S.A. Rhode Island
;

# Standardized crystallographic data

_cell_length_a                           4.354
_cell_length_b                           9.611
_cell_length_c                           8.022
_cell_angle_alpha                        90
_cell_angle_beta                         97.03
_cell_angle_gamma                        90
_cell_volume                             333.2
_cell_formula_units_Z                    2
_space_group_IT_number                   11
_space_group_name_H-M_alt                'P 1 21/m 1'
loop_
 _space_group_symop_id
 _space_group_symop_operation_xyz
 1 'x, y, z'
 2 '-x, -y, -z'
 3 '-x, 1/2+y, -z'
 4 'x, 1/2-y, z'
loop_
 _atom_type_symbol
 Cl
 K
 OH2
 I
loop_
 _atom_site_label
 _atom_site_type_symbol
 _atom_site_symmetry_multiplicity
 _atom_site_Wyckoff_symbol
 _atom_site_fract_x
 _atom_site_fract_y
 _atom_site_fract_z
 _atom_site_occupancy
 Cl Cl 4 f 0.2358 0.5405 0.3034 1
 K K 2 e 0.2259 0.25 0.538 1
 O OH2 2 e 0.6871 0.25 0.3159 1
 I I 2 a 0 0 0 1


_exptl_crystal_colour                    ?
_exptl_crystal_density_meas              2.44(5)
_exptl_crystal_density_diffrn            2.54
_cell_measurement_temperature            ?
_cell_measurement_radiation              ?
_cell_measurement_reflns_used            15
_diffrn_ambient_temperature              ?
_diffrn_measurement_device               'automatic diffractometer'
_diffrn_measurement_device_type          Picker
_diffrn_radiation_type                   'X-rays, Mo Ka'
_diffrn_reflns_number                    ?
_exptl_absorpt_coefficient_mu            6.20
_exptl_absorpt_correction_type           no
_computing_structure_solution            'Patterson synthesis'
_refine_ls_number_parameters             ?
_refine_ls_number_reflns                 542
_refine_ls_R_factor_gt                   0.060
_refine_ls_wR_factor_gt                  0.074

# End of data set 1100208


