##############################################################################
#                                                                            #
# Cl-I-K           # K[ICl2]                                       # 1100207 #
#                                                                            #
##############################################################################
#                                                                            #
#                           Pearson's Crystal Data                           #
#      Crystal Structure Database for Inorganic Compounds (on DVD)           #
#                              Release 2017/18                               #
#                  Editors: Pierre Villars and Karin Cenzual                 #
#                                                                            #
#   Copyright (c) ASM International & Material Phases Data System (MPDS),    #
# Switzerland & National Institute for Materials Science (NIMS), Japan, 2017 #
#                   All rights reserved. Version 2017.08                     #
#                                                                            #
#   This copy of Pearson's Crystal Data is licensed to:                      #
#   University of Alberta, Chemistry Department, 1-5 Installations License         #
#                                                                            #
##############################################################################

data_1100207
_audit_creation_date                     2017-12-04
_audit_creation_method
;
Pearson's Crystal Data browser
;
#_database_code_PCD                      1100207

# Entry summary

_chemical_formula_structural             'K [I Cl~2~]'
_chemical_formula_sum                    'Cl2 I K'
_chemical_name_mineral                   ?
_chemical_compound_source                ?
_chemical_name_structure_type            K[ICl~2~],mP32,14
_chemical_formula_weight                 236.9

# Bibliographic data

_publ_section_title
'The crystal structures of KICl~2~ and KICl~2~.H~2~O'                         
_journal_coden_ASTM                      ACBCAR
_journal_name_full                       'Acta Crystallogr. B'
_journal_year                            1973
_journal_volume                          29
_journal_page_first                      2104
_journal_page_last                       2109
_journal_language                        English
loop_
 _publ_author_name
 _publ_author_address
'Soled S.L.'
;
Rhode Island Providence Brown University
Metcalf Chemical Laboratories
Providence
U.S.A. Rhode Island
;
'Carpenter G.B.'
;
Rhode Island Providence Brown University
Metcalf Chemical Laboratories
Providence
U.S.A. Rhode Island
;

# Standardized crystallographic data

_cell_length_a                           8.507
_cell_length_b                           10.907
_cell_length_c                           12.126
_cell_angle_alpha                        90
_cell_angle_beta                         107.82
_cell_angle_gamma                        90
_cell_volume                             1071.1
_cell_formula_units_Z                    8
_space_group_IT_number                   14
_space_group_name_H-M_alt                'P 1 21/c 1'
loop_
 _space_group_symop_id
 _space_group_symop_operation_xyz
 1 'x, y, z'
 2 '-x, -y, -z'
 3 '-x, 1/2+y, 1/2-z'
 4 'x, 1/2-y, 1/2+z'
loop_
 _atom_type_symbol
 K
 Cl
 I
loop_
 _atom_site_label
 _atom_site_type_symbol
 _atom_site_symmetry_multiplicity
 _atom_site_Wyckoff_symbol
 _atom_site_fract_x
 _atom_site_fract_y
 _atom_site_fract_z
 _atom_site_occupancy
 K2 K 4 e 0.0431 0.43 0.306 1
 Cl1 Cl 4 e 0.1375 0.1425 0.0694 1
 Cl3 Cl 4 e 0.1835 0.6905 0.2687 1
 I2 I 4 e 0.2157 0.594 0.0845 1
 Cl4 Cl 4 e 0.2598 0.0099 0.4077 1
 I1 I 4 e 0.3655 0.518 0.6153 1
 Cl2 Cl 4 e 0.4035 0.3232 0.3363 1
 K1 K 4 e 0.4719 0.3021 0.0889 1


_exptl_crystal_colour                    ?
_exptl_crystal_density_meas              2.87(5)
_exptl_crystal_density_diffrn            2.94
_cell_measurement_temperature            ?
_cell_measurement_radiation              ?
_cell_measurement_reflns_used            15
_diffrn_ambient_temperature              ?
_diffrn_measurement_device               'automatic diffractometer'
_diffrn_measurement_device_type          Picker
_diffrn_radiation_type                   'X-rays, Mo Ka'
_diffrn_reflns_number                    ?
_exptl_absorpt_coefficient_mu            7.53
_exptl_absorpt_correction_type           no
_computing_structure_solution            'Patterson synthesis'
_refine_ls_number_parameters             ?
_refine_ls_number_reflns                 1249
_refine_ls_R_factor_gt                   0.057
_refine_ls_wR_factor_gt                  0.066

# End of data set 1100207


