##############################################################################
#                                                                            #
# H-K-O            # K[OH][H2O]                                    #  307839 #
#                                                                            #
##############################################################################
#                                                                            #
#                           Pearson's Crystal Data                           #
#      Crystal Structure Database for Inorganic Compounds (on DVD)           #
#                              Release 2017/18                               #
#                  Editors: Pierre Villars and Karin Cenzual                 #
#                                                                            #
#   Copyright (c) ASM International & Material Phases Data System (MPDS),    #
# Switzerland & National Institute for Materials Science (NIMS), Japan, 2017 #
#                   All rights reserved. Version 2017.08                     #
#                                                                            #
#   This copy of Pearson's Crystal Data is licensed to:                      #
#   University of Alberta, Chemistry Department, 1-5 Installations License         #
#                                                                            #
##############################################################################

data_307839
_audit_creation_date                     2017-12-01
_audit_creation_method
;
Pearson's Crystal Data browser
;
#_database_code_PCD                      307839

# Entry summary

_chemical_formula_structural             'K [O H] [H~2~ O]'
_chemical_formula_sum                    'H3 K O2'
_chemical_name_mineral                   ?
_chemical_compound_source                ?
_chemical_name_structure_type            K[OH][H~2~O],mP12,14
_chemical_formula_weight                 74.1

# Bibliographic data

_publ_section_title
'Le polymorphisme de la potasse. Incidence du monohydrate'                    
_journal_coden_ASTM                      CHDCAQ
_journal_name_full                       'C. R. Seances Acad. Sci., Ser. C'
_journal_year                            1974
_journal_volume                          278
_journal_page_first                      1193
_journal_page_last                       1196
_journal_language                        French
loop_
 _publ_author_name
 _publ_author_address
'Bec C.'
;
Villeurbanne Lyon I Claude Bernard University
Villeurbanne
France
;
'Counioux J.J.'
;
Villeurbanne Lyon I Claude Bernard University
Villeurbanne
France
;
'Papin G.'
;
Paris VI Pierre et Marie Curie University
Paris
France
;
'Sebaoun A.'
;
Villeurbanne Lyon I Claude Bernard University
Villeurbanne
France
;

# Standardized crystallographic data

_cell_length_a                           5.8
_cell_length_b                           5.83
_cell_length_c                           7.88
_cell_angle_alpha                        90
_cell_angle_beta                         109.83
_cell_angle_gamma                        90
_cell_volume                             250.7
_cell_formula_units_Z                    4
_space_group_IT_number                   14
_space_group_name_H-M_alt                'P 1 21/c 1'
loop_
 _space_group_symop_id
 _space_group_symop_operation_xyz
 1 'x, y, z'
 2 '-x, -y, -z'
 3 '-x, 1/2+y, 1/2-z'
 4 'x, 1/2-y, 1/2+z'

# Atomic positions taken from type-defining entry

loop_
 _atom_type_symbol
 O
 K
loop_
 _atom_site_label
 _atom_site_type_symbol
 _atom_site_symmetry_multiplicity
 _atom_site_Wyckoff_symbol
 _atom_site_fract_x
 _atom_site_fract_y
 _atom_site_fract_z
 _atom_site_occupancy
 O1 O 4 e 0.0548 0.1371 0.2631 1
 K1 K 4 e 0.29798 0.7539 0.07497 1
 O2 O 4 e 0.3429 0.2544 0.0852 1


_exptl_crystal_colour                    ?
_exptl_crystal_density_meas              ?
_exptl_crystal_density_diffrn            1.96
_cell_measurement_temperature            ?
_cell_measurement_radiation              'X-rays, Cu Ka'
_cell_measurement_reflns_used            ?
_diffrn_ambient_temperature              ?
_diffrn_measurement_device               film
_diffrn_measurement_device_type          ?
_diffrn_radiation_type                   ?
_diffrn_reflns_number                    ?
_exptl_absorpt_coefficient_mu            ?
_exptl_absorpt_correction_type           ?
_computing_structure_solution            ?
_refine_ls_number_parameters             ?
_refine_ls_number_reflns                 ?
_refine_ls_R_factor_gt                   ?
_refine_ls_wR_factor_gt                  ?

# Published diffraction lines

loop_
 _refln_index_h
 _refln_index_k
 _refln_index_l
 _refln_d_spacing
 _refln_intensity_meas
 1 1 0 40.01 5
 0 0 2 37.13 5
 0 1 2 31.29 5
 0 2 0 29.21 7
 2 0 0 27.38 1
 1 0 2 26.8 8
 1 2 0 25.7 3
 2 1 0 24.82 1
 -2 1 2 24.34 3
 0 2 2 22.95 5
 2 2 0 19.976 1
 1 2 2 19.712 7
 -3 1 1 18.279 5
 0 1 4 17.665 1
 3 1 0 17.433 1
 0 3 2 17.214 1
 -1 2 4 16.321 5
 2 2 2 15.978 1
 3 2 0 15.489 3
 0 4 0 14.559 3
 1 2 4 14.03 3
 1 4 1 13.613 3
 0 3 4 13.419 3
 -1 0 6 13.042 3
 2 4 0 12.846 1
 4 2 0 12.365 2
 2 2 4 12.186 2
 4 1 2 11.363 3
 4 2 2 10.793 3
 3 4 2 10.319 1

# End of data set 307839


