##############################################################################
#                                                                            #
# Al-Br-K          # KAl2Br7                                       # 1100140 #
#                                                                            #
##############################################################################
#                                                                            #
#                           Pearson's Crystal Data                           #
#      Crystal Structure Database for Inorganic Compounds (on DVD)           #
#                              Release 2017/18                               #
#                  Editors: Pierre Villars and Karin Cenzual                 #
#                                                                            #
#   Copyright (c) ASM International & Material Phases Data System (MPDS),    #
# Switzerland & National Institute for Materials Science (NIMS), Japan, 2017 #
#                   All rights reserved. Version 2017.08                     #
#                                                                            #
#   This copy of Pearson's Crystal Data is licensed to:                      #
#   University of Alberta, Chemistry Department, 1-5 Installations License         #
#                                                                            #
##############################################################################

data_1100140
_audit_creation_date                     2017-12-04
_audit_creation_method
;
Pearson's Crystal Data browser
;
#_database_code_PCD                      1100140

# Entry summary

_chemical_formula_structural             'K Al~2~ Br~7~'
_chemical_formula_sum                    'Al2 Br7 K'
_chemical_name_mineral                   ?
_chemical_compound_source                ?
_chemical_name_structure_type            KAl~2~Br~7~,mP40,14
_chemical_formula_weight                 652.4

# Bibliographic data

_publ_section_title
'Potassium Heptabromodialuminate, KAl~2~Br~7~'                                
_journal_coden_ASTM                      ACBCAR
_journal_name_full                       'Acta Crystallogr. B'
_journal_year                            1973
_journal_volume                          29
_journal_page_first                      1541
_journal_page_last                       1543
_journal_language                        English
loop_
 _publ_author_name
 _publ_author_address
'Rytter E.'
;
Trondheim Norwegian Institute of Technology
Department of Inorganic Chemistry
Trondheim
Norway
;
'Rytter B.E.D.'
;
Trondheim Norwegian Institute of Technology
Department of Inorganic Chemistry
Trondheim
Norway
;
'Oye H.A.'
;
Trondheim Norwegian Institute of Technology
Department of Inorganic Chemistry
Trondheim
Norway
;
'Krogh Moe J.'
;
Trondheim Norwegian Institute of Technology
Department of Chemistry
Trondheim
Norway
;

# Standardized crystallographic data

_cell_length_a                           10.6776
_cell_length_b                           10.822
_cell_length_c                           14.444
_cell_angle_alpha                        90
_cell_angle_beta                         123.345
_cell_angle_gamma                        90
_cell_volume                             1394.3
_cell_formula_units_Z                    4
_space_group_IT_number                   14
_space_group_name_H-M_alt                'P 1 21/c 1'
loop_
 _space_group_symop_id
 _space_group_symop_operation_xyz
 1 'x, y, z'
 2 '-x, -y, -z'
 3 '-x, 1/2+y, 1/2-z'
 4 'x, 1/2-y, 1/2+z'
loop_
 _atom_type_symbol
 Br
 Al
 K
loop_
 _atom_site_label
 _atom_site_type_symbol
 _atom_site_symmetry_multiplicity
 _atom_site_Wyckoff_symbol
 _atom_site_fract_x
 _atom_site_fract_y
 _atom_site_fract_z
 _atom_site_occupancy
 Br1 Br 4 e 0.0641 0.1042 0.1201 1
 Al1 Al 4 e 0.0958 0.2897 0.2007 1
 Br3 Br 4 e 0.1176 0.2747 0.3581 1
 Br2 Br 4 e 0.2842 0.3986 0.2063 1
 Al2 Al 4 e 0.3262 0.7118 0.0453 1
 K K 4 e 0.383 0.1204 0.1134 1
 Br7 Br 4 e 0.4778 0.079 0.3807 1
 Br5 Br 4 e 0.6546 0.1308 0.0541 1
 Br6 Br 4 e 0.7091 0.287 0.3244 1
 Br4 Br 4 e 0.882 0.4156 0.0908 1


_exptl_crystal_colour                    ?
_exptl_crystal_density_meas              ?
_exptl_crystal_density_diffrn            3.11
_cell_measurement_temperature            ?
_cell_measurement_radiation              ?
_cell_measurement_reflns_used            ?
_diffrn_ambient_temperature              ?
_diffrn_measurement_device               'automatic diffractometer'
_diffrn_measurement_device_type          Picker
_diffrn_radiation_type                   'X-rays, Mo Ka1'
_diffrn_radiation_wavelength             0.7093
_diffrn_reflns_number                    2258
_exptl_absorpt_coefficient_mu            21.68
_exptl_absorpt_correction_type           yes
_computing_structure_solution            'direct methods, Fourier synthesis'
_refine_ls_number_parameters             ?
_refine_ls_number_reflns                 2053
_refine_ls_R_factor_gt                   0.25
_refine_ls_wR_factor_gt                  0.18

# End of data set 1100140


