##############################################################################
#                                                                            #
# Al-Cr-H-K-O      # KAl[CrO4]2[H2O]2                              #  307684 #
#                                                                            #
##############################################################################
#                                                                            #
#                           Pearson's Crystal Data                           #
#      Crystal Structure Database for Inorganic Compounds (on DVD)           #
#                              Release 2017/18                               #
#                  Editors: Pierre Villars and Karin Cenzual                 #
#                                                                            #
#   Copyright (c) ASM International & Material Phases Data System (MPDS),    #
# Switzerland & National Institute for Materials Science (NIMS), Japan, 2017 #
#                   All rights reserved. Version 2017.08                     #
#                                                                            #
#   This copy of Pearson's Crystal Data is licensed to:                      #
#   University of Alberta, Chemistry Department, 1-5 Installations License         #
#                                                                            #
##############################################################################

data_307684
_audit_creation_date                     2017-12-01
_audit_creation_method
;
Pearson's Crystal Data browser
;
#_database_code_PCD                      307684

# Entry summary

_chemical_formula_structural             'K Al [Cr O~4~]~2~ [H~2~ O]~2~'
_chemical_formula_sum                    'Al Cr2 H4 K O10'
_chemical_name_mineral                   ?
_chemical_compound_source                ?
_chemical_name_structure_type            KFe[CrO~4~]~2~[H~2~O]~2~,mS28,12
_chemical_formula_weight                 334.1

# Bibliographic data

_publ_section_title
;
Etude structurale des chromates doubles d'aluminium et d'alcalin: NaAl(CrO~4~)~2~.2H~2~O et KAl(CrO~4~)~2~.2H~2~O
;
_journal_coden_ASTM                      CHDCAQ
_journal_name_full                       'C. R. Seances Acad. Sci., Ser. C'
_journal_year                            1977
_journal_volume                          284
_journal_page_first                      565
_journal_page_last                       568
_journal_language                        French
loop_
 _publ_author_name
 _publ_author_address
'Cudennec Y.'
;
Rennes I University
Rennes
France
;
'Riou A.'
;
Rennes I University
Rennes
France
;

# Standardized crystallographic data

_cell_length_a                           10.785
_cell_length_b                           5.403
_cell_length_c                           7.5351
_cell_angle_alpha                        90
_cell_angle_beta                         114.402
_cell_angle_gamma                        90
_cell_volume                             399.9
_cell_formula_units_Z                    2
_space_group_IT_number                   12
_space_group_name_H-M_alt                'C 1 2/m 1'
loop_
 _space_group_symop_id
 _space_group_symop_operation_xyz
 1 'x, y, z'
 2 '-x, -y, -z'
 3 '-x, y, -z'
 4 'x, -y, z'
 5 '1/2+x, 1/2+y, z'
 6 '1/2-x, 1/2-y, -z'
 7 '1/2-x, 1/2+y, -z'
 8 '1/2+x, 1/2-y, z'
loop_
 _atom_type_symbol
 O
 OH2
 Cr
 K
 Al
loop_
 _atom_site_label
 _atom_site_type_symbol
 _atom_site_symmetry_multiplicity
 _atom_site_Wyckoff_symbol
 _atom_site_fract_x
 _atom_site_fract_y
 _atom_site_fract_z
 _atom_site_occupancy
 O(1) O 8 j 0.018 0.2439 0.1882 1
 H2O OH2 4 i 0.186 0 0.081 1
 O(3) O 4 i 0.347 0 0.482 1
 Cr Cr 4 i 0.6063 0 0.2843 1
 O(2) O 4 i 0.742 0 0.244 1
 K K 2 c 0 0 0.5 1
 Al Al 2 a 0 0 0 1


_exptl_crystal_colour                    ?
_exptl_crystal_density_meas              2.71
_exptl_crystal_density_diffrn            2.78
_cell_measurement_temperature            ?
_cell_measurement_radiation              'X-rays, Mo Ka'
_cell_measurement_reflns_used            ?
_diffrn_ambient_temperature              ?
_diffrn_measurement_device               'precession photographs'
_diffrn_measurement_device_type          ?
_diffrn_radiation_type                   'X-rays, Mo Ka'
_diffrn_reflns_number                    ?
_exptl_absorpt_coefficient_mu            ?
_exptl_absorpt_correction_type           ?
_computing_structure_solution            'crystal chemical considerations'
_refine_ls_number_parameters             ?
_refine_ls_number_reflns                 ?
_refine_ls_R_factor_gt                   0.078
_refine_ls_wR_factor_gt                  ?

# End of data set 307684


