##############################################################################
#                                                                            #
# Au-K             # KAu5                                          #  526553 #
#                                                                            #
##############################################################################
#                                                                            #
#                           Pearson's Crystal Data                           #
#      Crystal Structure Database for Inorganic Compounds (on DVD)           #
#                              Release 2017/18                               #
#                  Editors: Pierre Villars and Karin Cenzual                 #
#                                                                            #
#   Copyright (c) ASM International & Material Phases Data System (MPDS),    #
# Switzerland & National Institute for Materials Science (NIMS), Japan, 2017 #
#                   All rights reserved. Version 2017.08                     #
#                                                                            #
#   This copy of Pearson's Crystal Data is licensed to:                      #
#   University of Alberta, Chemistry Department, 1-5 Installations License         #
#                                                                            #
##############################################################################

data_526553
_audit_creation_date                     2017-12-01
_audit_creation_method
;
Pearson's Crystal Data browser
;
#_database_code_PCD                      526553

# Entry summary

_chemical_formula_structural             'K Au~5~'
_chemical_formula_sum                    'Au5 K'
_chemical_name_mineral                   ?
_chemical_compound_source                ?
_chemical_name_structure_type            CaCu~5~,hP6,191
_chemical_formula_weight                 1023.9

# Bibliographic data

_publ_section_title
;
\"Uber die Kristallstrukturen der goldreichsten Phasen in den Systemen Kalium-Gold und Rubidium-Gold
;
_journal_coden_ASTM                      ZAACAB
_journal_name_full                       'Z. Anorg. Allg. Chem.'
_journal_year                            1964
_journal_volume                          332
_journal_page_first                      5
_journal_page_last                       11
_journal_language                        German
loop_
 _publ_author_name
 _publ_author_address
'Raub C.J.'
;
California La Jolla San Diego University
Department of Physics
La Jolla
U.S.A. California
;
'Compton V.B.'
;
AT and T Bell Laboratories Inc.
Murray Hill
U.S.A. New Jersey
;

# Standardized crystallographic data

_cell_length_a                           5.659
_cell_length_b                           5.659
_cell_length_c                           4.483
_cell_angle_alpha                        90
_cell_angle_beta                         90
_cell_angle_gamma                        120
_cell_volume                             124.33
_cell_formula_units_Z                    1
_space_group_IT_number                   191
_space_group_name_H-M_alt                'P 6/m m m'
loop_
 _space_group_symop_id
 _space_group_symop_operation_xyz
 1 'x, y, z'
 2 '-x+y, -x, -z'
 3 '-x+y, -x, z'
 4 '-x+y, y, -z'
 5 '-x+y, y, z'
 6 '-x, -x+y, -z'
 7 '-x, -x+y, z'
 8 '-x, -y, -z'
 9 '-x, -y, z'
 10 '-y, -x, -z'
 11 '-y, -x, z'
 12 '-y, x-y, -z'
 13 '-y, x-y, z'
 14 'x, x-y, -z'
 15 'x, x-y, z'
 16 'x, y, -z'
 17 'x-y, -y, -z'
 18 'x-y, -y, z'
 19 'x-y, x, -z'
 20 'x-y, x, z'
 21 'y, -x+y, -z'
 22 'y, -x+y, z'
 23 'y, x, -z'
 24 'y, x, z'
loop_
 _atom_type_symbol
 Au
 K
loop_
 _atom_site_label
 _atom_site_type_symbol
 _atom_site_symmetry_multiplicity
 _atom_site_Wyckoff_symbol
 _atom_site_fract_x
 _atom_site_fract_y
 _atom_site_fract_z
 _atom_site_occupancy
 Au(BII) Au 3 g 0.5 0 0.5 1
 Au(BI) Au 2 c 0.333333 0.666667 0 1
 K K 1 a 0 0 0 1


_exptl_crystal_colour                    green
_exptl_crystal_density_meas              ?
_exptl_crystal_density_diffrn            13.68
_cell_measurement_temperature            ?
_cell_measurement_radiation              'X-rays, Cu Ka'
_cell_measurement_wavelength             1.5405
_pd_proc_wavelength                      1.5405
_cell_measurement_reflns_used            ?
_diffrn_ambient_temperature              ?
_diffrn_measurement_device               'Debye-Scherrer film'
_diffrn_measurement_device_type          ?
_diffrn_radiation_type                   'X-rays, Cu Ka'
_diffrn_reflns_number                    ?
_exptl_absorpt_coefficient_mu            ?
_exptl_absorpt_correction_type           ?
_computing_structure_solution            ?
_refine_ls_number_parameters             ?
_refine_ls_number_reflns                 ?
_refine_ls_R_factor_gt                   ?
_refine_ls_wR_factor_gt                  ?
_pd_proc_ls_proof_R_factor               ?
_pd_proc_ls_proof_wR_factor              ?
_refine_ls_R_I_factor                    ?

# Published diffraction lines

loop_
 _refln_index_h
 _refln_index_k
 _refln_index_l
 _refln_d_spacing
 _refln_intensity_meas
 1 0 0 248 8
 1 1 0 752.4 3
 2 0 0 996.3 5
 1 1 1 1046 9
 0 0 2 1188.9 6
 2 0 1 1289 9
 1 0 2 1433.8 5
 2 1 0 1739.5 4
 1 1 2 1932.7 2
 2 0 2 2175.2 4
 3 0 1 2527.3 6
 2 1 2 2923.3 4
 2 2 0 2979.1 6
 3 1 0 3221.2 2
 1 1 3 3411.8 5
 2 0 3 3657.1 5
 2 2 2 4145.8 7
 4 0 1 4262.7 4
 3 1 2 4411.5 3
 3 2 0 4719.1 3
 3 0 3 4893.6 3
 1 1 4 5500 5
 4 0 3 6611.3 4
 3 0 4 6961.7 3
 4 2 1 7207.5 6
 2 2 4 7688 6
 4 1 3 7839.2 5
 3 1 4 7936.1 2
 4 2 2 8103.1 5
 2 0 5 8359.8 4
 5 1 2 8834.7 3
 6 0 0 8881.4 5
 3 3 3 9314.4 4
 3 2 4 9408.2 3
 4 2 3 9556.2 7
 3 0 5 9590.1 6
 4 1 4 9911.4 5

# End of data set 526553


