##############################################################################
#                                                                            #
# Au-Br-H-K-O      # KAuBr4[H2O]2 mon1                             # 1100296 #
#                                                                            #
##############################################################################
#                                                                            #
#                           Pearson's Crystal Data                           #
#      Crystal Structure Database for Inorganic Compounds (on DVD)           #
#                              Release 2017/18                               #
#                  Editors: Pierre Villars and Karin Cenzual                 #
#                                                                            #
#   Copyright (c) ASM International & Material Phases Data System (MPDS),    #
# Switzerland & National Institute for Materials Science (NIMS), Japan, 2017 #
#                   All rights reserved. Version 2017.08                     #
#                                                                            #
#   This copy of Pearson's Crystal Data is licensed to:                      #
#   University of Alberta, Chemistry Department, 1-5 Installations License         #
#                                                                            #
##############################################################################

data_1100296
_audit_creation_date                     2017-12-04
_audit_creation_method
;
Pearson's Crystal Data browser
;
#_database_code_PCD                      1100296

# Entry summary

_chemical_formula_structural             'K Au Br~4~ [H~2~ O]~2~'
_chemical_formula_sum                    'Au Br4 H4 K O2'
_chemical_name_mineral                   ?
_chemical_compound_source                ?
_chemical_name_structure_type            KAuBr~4~[H~2~O]~2~,mP32,14
_chemical_formula_weight                 591.7

# Bibliographic data

_publ_section_title
'Structure of Potassium Tetrabromoaurate(III) Dihydrate'                      
_journal_coden_ASTM                      ACSCEE
_journal_name_full                       'Acta Crystallogr. C'
_journal_year                            1986
_journal_volume                          42
_journal_page_first                      1091
_journal_page_last                       1092
_journal_language                        English
loop_
 _publ_author_name
 _publ_author_address
'Omrani H.'
;
Monastir Faculty of Sciences
D\'epartement de Chimie
Monastir
Tunisia
;
'Th\'eobald F.'
;
Orsay Paris Sud XI University
Orsay
France
;
'Vivier H.'
;
Ecole Nationale Sup\'erieure des Industries Chimiques
Nancy
France
;

# Standardized crystallographic data

_cell_length_a                           8.48
_cell_length_b                           12.006
_cell_length_c                           12.3068
_cell_angle_alpha                        90
_cell_angle_beta                         129.091
_cell_angle_gamma                        90
_cell_volume                             972.5
_cell_formula_units_Z                    4
_space_group_IT_number                   14
_space_group_name_H-M_alt                'P 1 21/c 1'
loop_
 _space_group_symop_id
 _space_group_symop_operation_xyz
 1 'x, y, z'
 2 '-x, -y, -z'
 3 '-x, 1/2+y, 1/2-z'
 4 'x, 1/2-y, 1/2+z'
loop_
 _atom_type_symbol
 OH2
 Br
 Au
 K
loop_
 _atom_site_label
 _atom_site_type_symbol
 _atom_site_symmetry_multiplicity
 _atom_site_Wyckoff_symbol
 _atom_site_fract_x
 _atom_site_fract_y
 _atom_site_fract_z
 _atom_site_occupancy
 O2 OH2 4 e 0.0171 0.136 0.0512 1
 Br2 Br 4 e 0.114 0.1778 0.3679 1
 Au Au 4 e 0.2507 0.4933 0.0026 1
 K K 4 e 0.2671 0.0277 0.0181 1
 Br4 Br 4 e 0.2767 0.4046 0.1901 1
 O1 OH2 4 e 0.5843 0.1353 0.0613 1
 Br1 Br 4 e 0.6065 0.1629 0.3605 1
 Br3 Br 4 e 0.7792 0.4166 0.187 1


_exptl_crystal_colour                    ?
_exptl_crystal_density_meas              ?
_exptl_crystal_density_diffrn            4.04
_cell_measurement_temperature            291
_cell_measurement_radiation              'X-rays, Mo Ka'
_cell_measurement_wavelength             0.7107
_cell_measurement_reflns_used            25
_diffrn_ambient_temperature              291
_diffrn_measurement_device               'automatic diffractometer'
_diffrn_measurement_device_type          'Philips PW1100'
_diffrn_radiation_type                   'X-rays, Mo Ka'
_diffrn_radiation_wavelength             0.7107
_diffrn_reflns_number                    1840
_exptl_absorpt_coefficient_mu            31.069
_exptl_absorpt_correction_type           yes
_computing_structure_solution
'starting values from the literature, Fourier synthesis'                      
_refine_ls_number_parameters             ?
_refine_ls_number_reflns                 ?
_refine_ls_R_factor_gt                   0.0406
_refine_ls_wR_factor_gt                  ?

# End of data set 1100296


