##############################################################################
#                                                                            #
# Ca-H-K-N         # KCa[NH2]3                                     #  540944 #
#                                                                            #
##############################################################################
#                                                                            #
#                           Pearson's Crystal Data                           #
#      Crystal Structure Database for Inorganic Compounds (on DVD)           #
#                              Release 2017/18                               #
#                  Editors: Pierre Villars and Karin Cenzual                 #
#                                                                            #
#   Copyright (c) ASM International & Material Phases Data System (MPDS),    #
# Switzerland & National Institute for Materials Science (NIMS), Japan, 2017 #
#                   All rights reserved. Version 2017.08                     #
#                                                                            #
#   This copy of Pearson's Crystal Data is licensed to:                      #
#   University of Alberta, Chemistry Department, 1-5 Installations License         #
#                                                                            #
##############################################################################

data_540944
_audit_creation_date                     2017-12-04
_audit_creation_method
;
Pearson's Crystal Data browser
;
#_database_code_PCD                      540944

# Entry summary

_chemical_formula_structural             'K Ca [N H~2~]~3~'
_chemical_formula_sum                    'Ca H6 K N3'
_chemical_name_mineral                   ?
_chemical_compound_source                ?
_chemical_name_structure_type            KCa[NH~2~]~3~,mP20,14
_chemical_formula_weight                 127.2

# Bibliographic data

_publ_section_title
'Synthesis and crystal structure of KCa(NH~2~)~3~'                            
_journal_coden_ASTM                      ZAACAB
_journal_name_full                       'Z. Anorg. Allg. Chem.'
_journal_year                            1977
_journal_volume                          435
_journal_page_first                      137
_journal_page_last                       145
_journal_language                        German
loop_
 _publ_author_name
 _publ_author_address
'Jacobs H.'
;
Aachen RWTH University
Institut f\"ur Anorganische Chemie
Aachen
Germany
;
'Fink U.'
;
Aachen RWTH University
Institut f\"ur Anorganische Chemie
Aachen
Germany
;

# Standardized crystallographic data

_cell_length_a                           6.767
_cell_length_b                           11.68
_cell_length_c                           6.624
_cell_angle_alpha                        90
_cell_angle_beta                         106.7
_cell_angle_gamma                        90
_cell_volume                             501.5
_cell_formula_units_Z                    4
_space_group_IT_number                   14
_space_group_name_H-M_alt                'P 1 21/c 1'
loop_
 _space_group_symop_id
 _space_group_symop_operation_xyz
 1 'x, y, z'
 2 '-x, -y, -z'
 3 '-x, 1/2+y, 1/2-z'
 4 'x, 1/2-y, 1/2+z'
loop_
 _atom_type_symbol
 N
 K
 Ca
 H
loop_
 _atom_site_label
 _atom_site_type_symbol
 _atom_site_symmetry_multiplicity
 _atom_site_Wyckoff_symbol
 _atom_site_fract_x
 _atom_site_fract_y
 _atom_site_fract_z
 _atom_site_occupancy
 N(3) N 4 e 0.0799 0.2252 0.2721 1
 K K 4 e 0.2382 0.591 0.2217 1
 N(2) N 4 e 0.2978 0.0899 0.3266 1
 Ca Ca 4 e 0.3247 0.2597 0.092 1
 N(1) N 4 e 0.5775 0.3312 0.432 1
 H(5) H 4 e 0.042 0.409 0.349 1
 H(6) H 4 e 0.087 0.792 0.296 1
 H(3) H 4 e 0.133 0.068 0.236 1
 H(2) H 4 e 0.253 0.828 0.053 1
 H(4) H 4 e 0.394 0.016 0.283 1
 H(1) H 4 e 0.503 0.422 0.386 1


_exptl_crystal_colour                    ?
_exptl_crystal_density_meas              1.70
_exptl_crystal_density_diffrn            1.69
_cell_measurement_temperature            293
_cell_measurement_radiation              'X-rays, Cu Ka1'
_cell_measurement_reflns_used            ?
_diffrn_ambient_temperature              ?
_diffrn_measurement_device               'automatic diffractometer'
_diffrn_measurement_device_type          'Enraf-Nonius CAD4'
_diffrn_radiation_type                   'X-rays, Mo Ka'
_diffrn_reflns_number                    ?
_exptl_absorpt_coefficient_mu            ?
_exptl_absorpt_correction_type           ?
_computing_structure_solution            'Patterson and Fourier synthesis'
_refine_ls_number_parameters             ?
_refine_ls_number_reflns                 ?
_refine_ls_R_factor_gt                   0.034
_refine_ls_wR_factor_gt                  ?

# End of data set 540944


