##############################################################################
#                                                                            #
# Cr-K-S           # KCr3S5                                        #  303424 #
#                                                                            #
##############################################################################
#                                                                            #
#                           Pearson's Crystal Data                           #
#      Crystal Structure Database for Inorganic Compounds (on DVD)           #
#                              Release 2017/18                               #
#                  Editors: Pierre Villars and Karin Cenzual                 #
#                                                                            #
#   Copyright (c) ASM International & Material Phases Data System (MPDS),    #
# Switzerland & National Institute for Materials Science (NIMS), Japan, 2017 #
#                   All rights reserved. Version 2017.08                     #
#                                                                            #
#   This copy of Pearson's Crystal Data is licensed to:                      #
#   University of Alberta, Chemistry Department, 1-5 Installations License         #
#                                                                            #
##############################################################################

data_303424
_audit_creation_date                     2017-12-01
_audit_creation_method
;
Pearson's Crystal Data browser
;
#_database_code_PCD                      303424

# Entry summary

_chemical_formula_structural             'K Cr~3~ S~5~'
_chemical_formula_sum                    'Cr3 K S5'
_chemical_name_mineral                   ?
_chemical_compound_source                ?
_chemical_name_structure_type            TlCr~3~S~5~,mS36,12
_chemical_formula_weight                 355.4

# Bibliographic data

_publ_section_title                      'Zur Kenntnis der Kaliumthiochromite'
_journal_coden_ASTM                      MOCMB7
_journal_name_full                       'Monatsh. Chem.'
_journal_year                            1984
_journal_volume                          115
_journal_page_first                      975
_journal_page_last                       985
_journal_language                        German
loop_
 _publ_author_name
 _publ_author_address
'Quint R.'
;
Vienna University
Institut f\"ur Physikalische Chemie
Vienna
Austria
;
'Boller H.'
;
Vienna University
Institut f\"ur Physikalische Chemie
Vienna
Austria
;
'Blaha H.'
;
Vienna University
Institut f\"ur Anorganische Chemie
Vienna
Austria
;

# Standardized crystallographic data

_cell_length_a                           19.16
_cell_length_b                           3.49
_cell_length_c                           12.02
_cell_angle_alpha                        90
_cell_angle_beta                         123.
_cell_angle_gamma                        90
_cell_volume                             674.1
_cell_formula_units_Z                    4
_space_group_IT_number                   12
_space_group_name_H-M_alt                'C 1 2/m 1'
loop_
 _space_group_symop_id
 _space_group_symop_operation_xyz
 1 'x, y, z'
 2 '-x, -y, -z'
 3 '-x, y, -z'
 4 'x, -y, z'
 5 '1/2+x, 1/2+y, z'
 6 '1/2-x, 1/2-y, -z'
 7 '1/2-x, 1/2+y, -z'
 8 '1/2+x, 1/2-y, z'

# Atomic positions taken from type-defining entry

loop_
 _atom_type_symbol
 S
 K
 Cr
loop_
 _atom_site_label
 _atom_site_type_symbol
 _atom_site_symmetry_multiplicity
 _atom_site_Wyckoff_symbol
 _atom_site_fract_x
 _atom_site_fract_y
 _atom_site_fract_z
 _atom_site_occupancy
 S1 S 4 i 0.0764 0 0.8937 1
 S2 S 4 i 0.0922 0 0.4197 1
 K1 K 4 i 0.2397 0 0.3312 1
 Cr1 Cr 4 i 0.3351 0 0.1108 1
 S3 S 4 i 0.4215 0 0.3492 1
 Cr2 Cr 4 i 0.5133 0 0.2708 1
 S4 S 4 i 0.582 0 0.1541 1
 S5 S 4 i 0.7543 0 0.1209 1
 Cr3 Cr 2 c 0 0 0.5 1
 Cr4 Cr 2 a 0 0 0 1


_exptl_crystal_colour                    ?
_exptl_crystal_density_meas              ?
_exptl_crystal_density_diffrn            3.50
_cell_measurement_temperature            ?
_cell_measurement_radiation              'X-rays, Cr Ka, Cu Ka'
_cell_measurement_reflns_used            ?
_diffrn_ambient_temperature              ?
_diffrn_measurement_device
'rotation and Weissenberg photographs'                                        
_diffrn_measurement_device_type          ?
_diffrn_radiation_type                   ?
_diffrn_reflns_number                    ?
_exptl_absorpt_coefficient_mu            ?
_exptl_absorpt_correction_type           ?
_computing_structure_solution            ?
_refine_ls_number_parameters             ?
_refine_ls_number_reflns                 ?
_refine_ls_R_factor_gt                   ?
_refine_ls_wR_factor_gt                  ?

# Published diffraction lines

loop_
 _refln_index_h
 _refln_index_k
 _refln_index_l
 _refln_d_spacing
 _refln_intensity_meas
 0 0 1 1250 2
 2 0 -1 1540 3
 2 0 0 2040 7
 4 0 0 8270 3
 2 0 2 10710 2
 1 1 1 13430 2
 3 1 -2 15260 2
 6 0 -4 17650 5
 1 1 2 18120 7
 3 1 1 19210 2
 5 1 -2 19900 3
 8 0 -4 24980 3
 3 1 2 25890 4
 7 1 -2 28530 5
 2 0 4 29790 3
 10 0 -4 36350 3
 5 1 2 37690 4
 0 2 0 43250 6
 11 1 -2 57920 2
 6 2 -4 60840 3
 8 2 -4 68170 2

# End of data set 303424


