##############################################################################
#                                                                            #
# Cr-K-S           # KCr5S8                                        #  540966 #
#                                                                            #
##############################################################################
#                                                                            #
#                           Pearson's Crystal Data                           #
#      Crystal Structure Database for Inorganic Compounds (on DVD)           #
#                              Release 2017/18                               #
#                  Editors: Pierre Villars and Karin Cenzual                 #
#                                                                            #
#   Copyright (c) ASM International & Material Phases Data System (MPDS),    #
# Switzerland & National Institute for Materials Science (NIMS), Japan, 2017 #
#                   All rights reserved. Version 2017.08                     #
#                                                                            #
#   This copy of Pearson's Crystal Data is licensed to:                      #
#   University of Alberta, Chemistry Department, 1-5 Installations License         #
#                                                                            #
##############################################################################

data_540966
_audit_creation_date                     2017-12-04
_audit_creation_method
;
Pearson's Crystal Data browser
;
#_database_code_PCD                      540966

# Entry summary

_chemical_formula_structural             'K Cr~5~ S~8~'
_chemical_formula_sum                    'Cr5 K S8'
_chemical_name_mineral                   ?
_chemical_compound_source                ?
_chemical_name_structure_type            Tl~0.83~V~5~S~8~,mS28,12
_chemical_formula_weight                 555.6

# Bibliographic data

_publ_section_title
;
Darstellung und Kristallstruktur der Alkalithiochromate(III), ACr~5~S~8~ (A= Cs, Rb und K)
;
_journal_coden_ASTM                      ZAACAB
_journal_name_full                       'Z. Anorg. Allg. Chem.'
_journal_year                            1978
_journal_volume                          447
_journal_page_first                      89
_journal_page_last                       96
_journal_language                        German
loop_
 _publ_author_name
 _publ_author_address
'Huster J.'
;
Aachen RWTH University
Institut f\"ur Anorganische Chemie
Aachen
Germany
;

# Standardized crystallographic data

_cell_length_a                           17.798
_cell_length_b                           3.447
_cell_length_c                           8.598
_cell_angle_alpha                        90
_cell_angle_beta                         105.
_cell_angle_gamma                        90
_cell_volume                             509.51
_cell_formula_units_Z                    2
_space_group_IT_number                   12
_space_group_name_H-M_alt                'C 1 2/m 1'
loop_
 _space_group_symop_id
 _space_group_symop_operation_xyz
 1 'x, y, z'
 2 '-x, -y, -z'
 3 '-x, y, -z'
 4 'x, -y, z'
 5 '1/2+x, 1/2+y, z'
 6 '1/2-x, 1/2-y, -z'
 7 '1/2-x, 1/2+y, -z'
 8 '1/2+x, 1/2-y, z'
loop_
 _atom_type_symbol
 S
 Cr
 K
loop_
 _atom_site_label
 _atom_site_type_symbol
 _atom_site_symmetry_multiplicity
 _atom_site_Wyckoff_symbol
 _atom_site_fract_x
 _atom_site_fract_y
 _atom_site_fract_z
 _atom_site_occupancy
 S2 S 4 i 0.0849 0 0.3231 1
 S3 S 4 i 0.1685 0 -0.01 1
 S4 S 4 i 0.239 0 0.657 1
 Cr3 Cr 4 i 0.2945 0 0.1628 1
 Cr2 Cr 4 i 0.3428 0 0.5217 1
 S1 S 4 i 0.4246 0 0.3437 1
 Cr1 Cr 2 c 0 0 0.5 1
 K K 2 b 0 0.5 0 1


_exptl_crystal_colour                    ?
_exptl_crystal_density_meas              3.58
_exptl_crystal_density_diffrn            3.62
_cell_measurement_temperature            ?
_cell_measurement_radiation              'X-rays, Mo Ka'
_cell_measurement_reflns_used            ?
_diffrn_ambient_temperature              ?
_diffrn_measurement_device               'automatic diffractometer'
_diffrn_measurement_device_type          Nonius
_diffrn_radiation_type                   'X-rays, Mo Ka'
_diffrn_reflns_number                    ?
_diffrn_reflns_theta_min                 3
_diffrn_reflns_theta_max                 80
_exptl_absorpt_coefficient_mu            ?
_exptl_absorpt_correction_type           ?
_computing_structure_solution            'Patterson and Fourier synthesis'
_refine_ls_number_parameters             ?
_refine_ls_number_reflns                 ?
_refine_ls_R_factor_gt                   0.054
_refine_ls_wR_factor_gt                  ?

# End of data set 540966


