##############################################################################
#                                                                            #
# Cu-H-K-O-S       # KCu2[SO4]2[OH][H2O]                           #  556301 #
#                                                                            #
##############################################################################
#                                                                            #
#                           Pearson's Crystal Data                           #
#      Crystal Structure Database for Inorganic Compounds (on DVD)           #
#                              Release 2017/18                               #
#                  Editors: Pierre Villars and Karin Cenzual                 #
#                                                                            #
#   Copyright (c) ASM International & Material Phases Data System (MPDS),    #
# Switzerland & National Institute for Materials Science (NIMS), Japan, 2017 #
#                   All rights reserved. Version 2017.08                     #
#                                                                            #
#   This copy of Pearson's Crystal Data is licensed to:                      #
#   University of Alberta, Chemistry Department, 1-5 Installations License         #
#                                                                            #
##############################################################################

data_556301
_audit_creation_date                     2017-12-04
_audit_creation_method
;
Pearson's Crystal Data browser
;
#_database_code_PCD                      556301

# Entry summary

_chemical_formula_structural             'K Cu~2~ [S O~4~]~2~ [O H] [H~2~ O]'
_chemical_formula_sum                    'Cu2 H3 K O10 S2'
_chemical_name_mineral                   kaliochalcite
_chemical_compound_source                ?
_chemical_name_structure_type
NaCu~2~[SO~4~]~2~[OH][H~2~O],mS30,12                                          
_chemical_formula_weight                 393.3

# Bibliographic data

_publ_section_title
;
Etude structurale de l'hydroxysulfate double de cuivre et de potassium monohydrat\'e: KCu~2~(OH)(SO~4~)~2~.H~2~O
;
_journal_coden_ASTM                      BSCFAS
_journal_name_full                       'Bull. Soc. Chim. Fr.'
_journal_year                            1974
_journal_volume                          ?
_journal_page_first                      1866
_journal_page_last                       1870
_journal_language                        French
loop_
 _publ_author_name
 _publ_author_address
'Tardy M.'
;
Paris University
Laboratoire de Cin\'etique Chimique
Paris
France
;
'Br\'egeault J.M.'
;
Paris VI Pierre et Marie Curie University
Laboratoire de Cin\'etique Chimique
Paris
France
;

# Standardized crystallographic data

_cell_length_a                           8.957
_cell_length_b                           6.251
_cell_length_c                           7.626
_cell_angle_alpha                        90
_cell_angle_beta                         117.62
_cell_angle_gamma                        90
_cell_volume                             378.32
_cell_formula_units_Z                    2
_space_group_IT_number                   12
_space_group_name_H-M_alt                'C 1 2/m 1'
loop_
 _space_group_symop_id
 _space_group_symop_operation_xyz
 1 'x, y, z'
 2 '-x, -y, -z'
 3 '-x, y, -z'
 4 'x, -y, z'
 5 '1/2+x, 1/2+y, z'
 6 '1/2-x, 1/2-y, -z'
 7 '1/2-x, 1/2+y, -z'
 8 '1/2+x, 1/2-y, z'
loop_
 _atom_type_symbol
 O
 OH
 OH2
 S
 Cu
 K
loop_
 _atom_site_label
 _atom_site_type_symbol
 _atom_site_symmetry_multiplicity
 _atom_site_Wyckoff_symbol
 _atom_site_fract_x
 _atom_site_fract_y
 _atom_site_fract_z
 _atom_site_occupancy
 O3 O 8 j 0.0291 0.3089 0.2733 1
 O4A OH 4 i 0.1566 0 0.5746 0.5
 O4B OH2 4 i 0.1566 0 0.5746 0.5
 O1 O 4 i 0.3126 0 0.3151 1
 S S 4 i 0.4194 0 0.2119 1
 O2 O 4 i 0.6829 0 -0.0019 1
 Cu Cu 4 f 0.25 0.25 0.5 1
 K K 2 a 0 0 0 1


_exptl_crystal_colour                    ?
_exptl_crystal_density_meas              ?
_exptl_crystal_density_diffrn            3.45
_cell_measurement_temperature            ?
_cell_measurement_radiation              'X-rays, Cu Ka'
_cell_measurement_reflns_used            ?
_diffrn_ambient_temperature              ?
_diffrn_measurement_device               'Weissenberg photographs'
_diffrn_measurement_device_type          ?
_diffrn_radiation_type                   'X-rays, Cu Ka'
_diffrn_reflns_number                    ?
_exptl_absorpt_coefficient_mu            17.4
_exptl_absorpt_correction_type           ?
_computing_structure_solution            'Patterson and Fourier synthesis'
_refine_ls_number_parameters             ?
_refine_ls_number_reflns                 ?
_refine_ls_R_factor_gt                   0.070
_refine_ls_wR_factor_gt                  ?

# End of data set 556301


