##############################################################################
#                                                                            #
# Cu-K-Te          # KCu3Te2                                       #  461804 #
#                                                                            #
##############################################################################
#                                                                            #
#                           Pearson's Crystal Data                           #
#      Crystal Structure Database for Inorganic Compounds (on DVD)           #
#                              Release 2017/18                               #
#                  Editors: Pierre Villars and Karin Cenzual                 #
#                                                                            #
#   Copyright (c) ASM International & Material Phases Data System (MPDS),    #
# Switzerland & National Institute for Materials Science (NIMS), Japan, 2017 #
#                   All rights reserved. Version 2017.08                     #
#                                                                            #
#   This copy of Pearson's Crystal Data is licensed to:                      #
#   University of Alberta, Chemistry Department, 1-5 Installations License         #
#                                                                            #
##############################################################################

data_461804
_audit_creation_date                     2017-12-01
_audit_creation_method
;
Pearson's Crystal Data browser
;
#_database_code_PCD                      461804

# Entry summary

_chemical_formula_structural             'K Cu~3~ Te~2~'
_chemical_formula_sum                    'Cu3 K Te2'
_chemical_name_mineral                   ?
_chemical_compound_source                ?
_chemical_name_structure_type            CsAg~3~S~2~,mS24,12
_chemical_formula_weight                 484.9

# Bibliographic data

_publ_section_title
'Zur Kenntnis von Na~2~Cu~4~S~3~ und KCu~3~Te~2~'                             
_journal_coden_ASTM                      MRBUAC
_journal_name_full                       'Mater. Res. Bull.'
_journal_year                            1981
_journal_volume                          16
_journal_page_first                      1291
_journal_page_last                       1297
_journal_language                        German
loop_
 _publ_author_name
 _publ_author_address
'Savelsberg G.'
;
Darmstadt University of Technology
Institut f\"ur Anorganische Chemie
Darmstadt
Germany
;
'Sch\"afer H.'
;
Darmstadt University of Technology
Institut f\"ur Anorganische Chemie
Darmstadt
Germany
;

# Standardized crystallographic data

_cell_length_a                           16.453
_cell_length_b                           4.294
_cell_length_c                           8.661
_cell_angle_alpha                        90
_cell_angle_beta                         111.86
_cell_angle_gamma                        90
_cell_volume                             567.9
_cell_formula_units_Z                    4
_space_group_IT_number                   12
_space_group_name_H-M_alt                'C 1 2/m 1'
loop_
 _space_group_symop_id
 _space_group_symop_operation_xyz
 1 'x, y, z'
 2 '-x, -y, -z'
 3 '-x, y, -z'
 4 'x, -y, z'
 5 '1/2+x, 1/2+y, z'
 6 '1/2-x, 1/2-y, -z'
 7 '1/2-x, 1/2+y, -z'
 8 '1/2+x, 1/2-y, z'
loop_
 _atom_type_symbol
 Cu
 K
 Te
loop_
 _atom_site_label
 _atom_site_type_symbol
 _atom_site_symmetry_multiplicity
 _atom_site_Wyckoff_symbol
 _atom_site_fract_x
 _atom_site_fract_y
 _atom_site_fract_z
 _atom_site_occupancy
 Cu(3) Cu 4 i 0.0696 0 0.4136 1
 K K 4 i 0.1336 0 0.0446 1
 Te(1) Te 4 i 0.2017 0 0.6939 1
 Cu(2) Cu 4 i 0.3041 0 0.5289 1
 Cu(1) Cu 4 i 0.4157 0 0.3976 1
 Te(2) Te 4 i 0.5213 0 0.2423 1


_exptl_crystal_colour                    black
_exptl_crystal_density_meas              ?
_exptl_crystal_density_diffrn            5.67
_cell_measurement_temperature            ?
_cell_measurement_radiation              'X-rays, Mo Ka'
_cell_measurement_reflns_used            ?
_diffrn_ambient_temperature              ?
_diffrn_measurement_device               'automatic diffractometer'
_diffrn_measurement_device_type          'Philips PW1100'
_diffrn_radiation_type                   'X-rays, Mo Ka'
_diffrn_reflns_number                    1929
_diffrn_reflns_theta_min                 2.5
_diffrn_reflns_theta_max                 25
_exptl_absorpt_coefficient_mu            ?
_exptl_absorpt_correction_type           yes
_computing_structure_solution            'starting values from the literature'
_refine_ls_number_parameters             ?
_refine_ls_number_reflns                 ?
_refine_ls_R_factor_gt                   0.052
_refine_ls_wR_factor_gt                  ?

# End of data set 461804


