##############################################################################
#                                                                            #
# Er-K-O-P         # KEr[P2O7] mon                                 #  379076 #
#                                                                            #
##############################################################################
#                                                                            #
#                           Pearson's Crystal Data                           #
#      Crystal Structure Database for Inorganic Compounds (on DVD)           #
#                              Release 2017/18                               #
#                  Editors: Pierre Villars and Karin Cenzual                 #
#                                                                            #
#   Copyright (c) ASM International & Material Phases Data System (MPDS),    #
# Switzerland & National Institute for Materials Science (NIMS), Japan, 2017 #
#                   All rights reserved. Version 2017.08                     #
#                                                                            #
#   This copy of Pearson's Crystal Data is licensed to:                      #
#   University of Alberta, Chemistry Department, 1-5 Installations License         #
#                                                                            #
##############################################################################

data_379076
_audit_creation_date                     2017-12-01
_audit_creation_method
;
Pearson's Crystal Data browser
;
#_database_code_PCD                      379076

# Entry summary

_chemical_formula_structural             'K Er [P~2~ O~7~]'
_chemical_formula_sum                    'Er K O7 P2'
_chemical_name_mineral                   ?
_chemical_compound_source                ?
_chemical_name_structure_type            KAl[P~2~O~7~],mP44,14
_chemical_formula_weight                 380.3

# Bibliographic data

_publ_section_title
;
X-ray diffraction characteristics and thermal transformations in the binary phosphates MLnP~2~O~7~ (M= K, Rb, Cs; Ln= r.e.e. of the yttrium subgroup)
;
_journal_coden_ASTM                      INOMAF
_journal_name_full                       'Inorg. Mater.'
_journal_year                            1993
_journal_volume                          29
_journal_page_first                      125
_journal_page_last                       129
_journal_language                        English
loop_
 _publ_author_name
 _publ_author_address
'Anisimova N.Y.'
;
Russian Academy of Sciences
Kurnakov N.S. Institute of General and Inorganic Chemistry
Moscow
Russia
;
'Chudinova N.N.'
;
Russian Academy of Sciences
Scientific Research Institute of Chemical Reagents and Ultrapure Chemicals
Moscow
Russia
;
'Trunov V.K.'
;
Russian Academy of Sciences
All-Union Research Institute of Reagents and Especially Pure Substances
Moscow
Russia
;

# Standardized crystallographic data

_cell_length_a                           7.567
_cell_length_b                           10.909
_cell_length_c                           8.583
_cell_angle_alpha                        90
_cell_angle_beta                         106.84
_cell_angle_gamma                        90
_cell_volume                             678.1
_cell_formula_units_Z                    4
_space_group_IT_number                   14
_space_group_name_H-M_alt                'P 1 21/c 1'
loop_
 _space_group_symop_id
 _space_group_symop_operation_xyz
 1 'x, y, z'
 2 '-x, -y, -z'
 3 '-x, 1/2+y, 1/2-z'
 4 'x, 1/2-y, 1/2+z'

# Atomic positions taken from type-defining entry

loop_
 _atom_type_symbol
 O
 P
 K
 Er
loop_
 _atom_site_label
 _atom_site_type_symbol
 _atom_site_symmetry_multiplicity
 _atom_site_Wyckoff_symbol
 _atom_site_fract_x
 _atom_site_fract_y
 _atom_site_fract_z
 _atom_site_occupancy
 O1 O 4 e 0.0167 0.0041 0.2762 1
 O2 O 4 e 0.0865 0.2603 0.2553 1
 P1 P 4 e 0.12959 0.40439 0.33234 1
 O3 O 4 e 0.149 0.0905 0.0215 1
 K1 K 4 e 0.18038 0.68265 0.05451 1
 Er1 Er 4 e 0.2369 0.09985 0.26048 1
 O4 O 4 e 0.3216 0.3947 0.0046 1
 O5 O 4 e 0.3305 0.4514 0.3071 1
 P2 P 4 e 0.43728 0.3673 0.18908 1
 O6 O 4 e 0.445 0.2165 0.2451 1
 O7 O 4 e 0.6363 0.4275 0.2356 1


_exptl_crystal_colour                    ?
_exptl_crystal_density_meas              ?
_exptl_crystal_density_diffrn            3.73
_cell_measurement_temperature            ?
_cell_measurement_radiation              'X-rays, Cu Ka'
_cell_measurement_reflns_used            ?
_diffrn_ambient_temperature              ?
_diffrn_measurement_device               'Guinier film'
_diffrn_measurement_device_type          ?
_diffrn_radiation_type                   ?
_diffrn_reflns_number                    ?
_exptl_absorpt_coefficient_mu            ?
_exptl_absorpt_correction_type           ?
_computing_structure_solution            ?
_refine_ls_number_parameters             ?
_refine_ls_number_reflns                 ?
_refine_ls_R_factor_gt                   ?
_refine_ls_wR_factor_gt                  ?

# Published diffraction lines

loop_
 _refln_index_h
 _refln_index_k
 _refln_index_l
 _refln_d_spacing
 _refln_intensity_meas
 1 0 0 72.58 20
 0 1 1 65.64 20
 1 1 0 60.45 80
 1 1 -1 55.55 80
 0 2 0 54.6 30
 0 2 1 45.48 50
 1 1 1 43.87 50
 1 2 0 43.61 10
 0 0 2 41.1 90
 1 1 -2 38.56 70
 2 0 0 36.24 60
 1 2 1 35.99 60
 0 3 1 33.25 10
 1 3 0 32.51 90
 2 0 -2 32.18 20
 1 3 -1 31.66 10
 2 2 -1 30.85 100
 2 2 0 30.17 50
 2 2 -2 27.72 20
 1 1 -3 27.56 80
 1 3 -2 27.26 100
 2 2 1 26.33 50
 2 3 -1 26.05 10
 2 3 0 25.66 20
 1 4 -1 25.1 10
 3 1 -1 24.57 60
 0 2 3 24.47 50
 3 0 0 24.12 10
 1 3 2 24.01 60
 2 2 -3 23.26 40
 1 1 3 22.94 50
 0 4 2 22.72 30
 1 3 -3 22.41 30
 2 2 2 21.91 30
 2 4 0 21.79 50

# End of data set 379076


