##############################################################################
#                                                                            #
# Fe-K-O-P         # KFe2[PO4]2                                    # 1000063 #
#                                                                            #
##############################################################################
#                                                                            #
#                           Pearson's Crystal Data                           #
#      Crystal Structure Database for Inorganic Compounds (on DVD)           #
#                              Release 2017/18                               #
#                  Editors: Pierre Villars and Karin Cenzual                 #
#                                                                            #
#   Copyright (c) ASM International & Material Phases Data System (MPDS),    #
# Switzerland & National Institute for Materials Science (NIMS), Japan, 2017 #
#                   All rights reserved. Version 2017.08                     #
#                                                                            #
#   This copy of Pearson's Crystal Data is licensed to:                      #
#   University of Alberta, Chemistry Department, 1-5 Installations License         #
#                                                                            #
##############################################################################

data_1000063
_audit_creation_date                     2017-12-04
_audit_creation_method
;
Pearson's Crystal Data browser
;
#_database_code_PCD                      1000063

# Entry summary

_chemical_formula_structural             'K Fe~2~ [P O~4~]~2~'
_chemical_formula_sum                    'Fe2 K O8 P2'
_chemical_name_mineral                   ?
_chemical_compound_source                ?
_chemical_name_structure_type            KFe~2~[PO~4~]~2~,mP52,14
_chemical_formula_weight                 340.7

# Bibliographic data

_publ_section_title
;
Crystal structure of new K, Fe orthophosphate, KFe^2+^Fe^3+^(PO~4~)~2~. Homeotypy of KFe^2+^Fe^3+^(PO~4~)~2~ and Fe^2+^~3~(H~2~O)[PO~4~]~2~
;
_journal_coden_ASTM                      SPHCA6
_journal_name_full                       'Sov. Phys. Crystallogr.'
_journal_year                            1986
_journal_volume                          31
_journal_page_first                      537
_journal_page_last                       541
_journal_language                        English
loop_
 _publ_author_name
 _publ_author_address
'Yakubovich O.V.'
;
Moscow M.V. Lomonosov State University
Moscow
Russia
;
'Evdokimova O.A.'
;
Moscow M.V. Lomonosov State University
Moscow
Russia
;
'Mel'nikov O.K.'
;
Moscow M.V. Lomonosov State University
Moscow
Russia
;
'Simonov M.A.'
;
Russian Academy of Sciences
Shubnikov A.V. Institute of Crystallography
Moscow
Russia
;

# Standardized crystallographic data

_cell_length_a                           7.846
_cell_length_b                           10.032
_cell_length_c                           9.127
_cell_angle_alpha                        90
_cell_angle_beta                         115.87
_cell_angle_gamma                        90
_cell_volume                             646.4
_cell_formula_units_Z                    4
_space_group_IT_number                   14
_space_group_name_H-M_alt                'P 1 21/c 1'
loop_
 _space_group_symop_id
 _space_group_symop_operation_xyz
 1 'x, y, z'
 2 '-x, -y, -z'
 3 '-x, 1/2+y, 1/2-z'
 4 'x, 1/2-y, 1/2+z'
loop_
 _atom_type_symbol
 O
 P
 K
 Fe
loop_
 _atom_site_label
 _atom_site_type_symbol
 _atom_site_symmetry_multiplicity
 _atom_site_Wyckoff_symbol
 _atom_site_fract_x
 _atom_site_fract_y
 _atom_site_fract_z
 _atom_site_occupancy
 O6 O 4 e 0.0291 0.0086 0.2538 1
 O1 O 4 e 0.0932 0.2833 0.2468 1
 O7 O 4 e 0.0933 0.1296 0.004 1
 P1 P 4 e 0.1161 0.4056 0.3521 1
 K K 4 e 0.1503 0.6362 0.0749 1
 Fe2 Fe 4 e 0.2291 0.12194 0.24218 1
 O4 O 4 e 0.3163 0.4664 0.4014 1
 O8 O 4 e 0.3488 0.1109 0.4861 1
 O5 O 4 e 0.4492 0.2461 0.2413 1
 P2 P 4 e 0.5122 0.3381 0.1367 1
 Fe1 Fe 4 e 0.5671 0.38213 0.44597 1
 O3 O 4 e 0.6131 0.4531 0.2585 1
 O2 O 4 e 0.6579 0.2635 0.0973 1


_exptl_crystal_colour                    black
_exptl_crystal_density_meas              ?
_exptl_crystal_density_diffrn            3.50
_cell_measurement_temperature            ?
_cell_measurement_radiation              'X-rays, Mo Ka'
_cell_measurement_reflns_used            ?
_diffrn_ambient_temperature              ?
_diffrn_measurement_device               'automatic diffractometer'
_diffrn_measurement_device_type          'Syntex P1'
_diffrn_radiation_type                   'X-rays, Mo Ka'
_diffrn_reflns_number                    2703
_exptl_absorpt_coefficient_mu            ?
_exptl_absorpt_correction_type           ?
_computing_structure_solution            'Patterson and Fourier synthesis'
_refine_ls_number_parameters             ?
_refine_ls_number_reflns                 ?
_refine_ls_R_factor_gt                   0.0566
_refine_ls_wR_factor_gt                  ?

# End of data set 1000063


