##############################################################################
#                                                                            #
# Cr-Fe-H-K-O      # KFe[CrO4]2[H2O]2                              #  549366 #
#                                                                            #
##############################################################################
#                                                                            #
#                           Pearson's Crystal Data                           #
#      Crystal Structure Database for Inorganic Compounds (on DVD)           #
#                              Release 2017/18                               #
#                  Editors: Pierre Villars and Karin Cenzual                 #
#                                                                            #
#   Copyright (c) ASM International & Material Phases Data System (MPDS),    #
# Switzerland & National Institute for Materials Science (NIMS), Japan, 2017 #
#                   All rights reserved. Version 2017.08                     #
#                                                                            #
#   This copy of Pearson's Crystal Data is licensed to:                      #
#   University of Alberta, Chemistry Department, 1-5 Installations License         #
#                                                                            #
##############################################################################

data_549366
_audit_creation_date                     2017-12-04
_audit_creation_method
;
Pearson's Crystal Data browser
;
#_database_code_PCD                      549366

# Entry summary

_chemical_formula_structural             'K Fe [Cr O~4~]~2~ [H~2~ O]~2~'
_chemical_formula_sum                    'Cr2 Fe H4 K O10'
_chemical_name_mineral                   ?
_chemical_compound_source                ?
_chemical_name_structure_type            KFe[CrO~4~]~2~[H~2~O]~2~,mS28,12
_chemical_formula_weight                 363.0

# Bibliographic data

_publ_section_title
;
Les chromates de fer et de m\'etaux monovalents: MFe(CrO~4~)~2~.2H~2~O
;
_journal_coden_ASTM                      CHDCAQ
_journal_name_full                       'C. R. Seances Acad. Sci., Ser. C'
_journal_year                            1968
_journal_volume                          266
_journal_page_first                      1227
_journal_page_last                       1229
_journal_language                        French
loop_
 _publ_author_name
 _publ_author_address
'Bonnin A.'
;
Rennes National Institute of Applied Sciences
Rennes
France
;
'Hardy A.M.'
;
Talence Bordeaux I University
Talence
France
;
'Lecerf A.'
;
Rennes National Institute of Applied Sciences
Rennes
France
;

# Standardized crystallographic data

_cell_length_a                           10.86
_cell_length_b                           5.51
_cell_length_c                           7.6422
_cell_angle_alpha                        90
_cell_angle_beta                         114.41
_cell_angle_gamma                        90
_cell_volume                             416.4
_cell_formula_units_Z                    2
_space_group_IT_number                   12
_space_group_name_H-M_alt                'C 1 2/m 1'
loop_
 _space_group_symop_id
 _space_group_symop_operation_xyz
 1 'x, y, z'
 2 '-x, -y, -z'
 3 '-x, y, -z'
 4 'x, -y, z'
 5 '1/2+x, 1/2+y, z'
 6 '1/2-x, 1/2-y, -z'
 7 '1/2-x, 1/2+y, -z'
 8 '1/2+x, 1/2-y, z'

# Atomic positions taken from type-defining entry

loop_
 _atom_type_symbol
 O
 Cr
 K
 Fe
loop_
 _atom_site_label
 _atom_site_type_symbol
 _atom_site_symmetry_multiplicity
 _atom_site_Wyckoff_symbol
 _atom_site_fract_x
 _atom_site_fract_y
 _atom_site_fract_z
 _atom_site_occupancy
 O1 O 8 j 0.0136 0.2394 0.1933 1
 O2 O 4 i 0.2072 0 0.0843 1
 O3 O 4 i 0.3556 0 0.4832 1
 Cr1 Cr 4 i 0.6055 0 0.2894 1
 O4 O 4 i 0.7374 0 0.2477 1
 K1 K 2 c 0 0 0.5 1
 Fe1 Fe 2 a 0 0 0 1


_exptl_crystal_colour                    ?
_exptl_crystal_density_meas              2.88
_exptl_crystal_density_diffrn            2.89
_cell_measurement_temperature            ?
_cell_measurement_radiation              X-rays
_cell_measurement_reflns_used            ?
_diffrn_ambient_temperature              ?
_diffrn_measurement_device               film
_diffrn_measurement_device_type          ?
_diffrn_radiation_type                   ?
_diffrn_reflns_number                    ?
_exptl_absorpt_coefficient_mu            ?
_exptl_absorpt_correction_type           ?
_computing_structure_solution            ?
_refine_ls_number_parameters             ?
_refine_ls_number_reflns                 ?
_refine_ls_R_factor_gt                   ?
_refine_ls_wR_factor_gt                  ?

# End of data set 549366


