##############################################################################
#                                                                            #
# Fe-K-O-P         # KFe[P2O7]                                     #  549182 #
#                                                                            #
##############################################################################
#                                                                            #
#                           Pearson's Crystal Data                           #
#      Crystal Structure Database for Inorganic Compounds (on DVD)           #
#                              Release 2017/18                               #
#                  Editors: Pierre Villars and Karin Cenzual                 #
#                                                                            #
#   Copyright (c) ASM International & Material Phases Data System (MPDS),    #
# Switzerland & National Institute for Materials Science (NIMS), Japan, 2017 #
#                   All rights reserved. Version 2017.08                     #
#                                                                            #
#   This copy of Pearson's Crystal Data is licensed to:                      #
#   University of Alberta, Chemistry Department, 1-5 Installations License         #
#                                                                            #
##############################################################################

data_549182
_audit_creation_date                     2017-12-04
_audit_creation_method
;
Pearson's Crystal Data browser
;
#_database_code_PCD                      549182

# Entry summary

_chemical_formula_structural             'K Fe [P~2~ O~7~]'
_chemical_formula_sum                    'Fe K O7 P2'
_chemical_name_mineral                   ?
_chemical_compound_source                ?
_chemical_name_structure_type            KAl[P~2~O~7~],mP44,14
_chemical_formula_weight                 268.9

# Bibliographic data

_publ_section_title
;
Pr\'eparation et \'etude radiocristallographique de diphosphates M^1+^M^3+^P~2~O~7~ (M^1+^= Na, K; M^3+^= Fe, Al) et Na~1-x~Fe~1-y~H~x+3y~P~2~O~7~
;
_journal_coden_ASTM                      CHDCAQ
_journal_name_full                       'C. R. Seances Acad. Sci., Ser. C'
_journal_year                            1971
_journal_volume                          272
_journal_page_first                      49
_journal_page_last                       52
_journal_language                        French
loop_
 _publ_author_name
 _publ_author_address
'Gamond\'es J.P.'
;
Grenoble
France
;
'D'Yvoire F.'
;
Grenoble
France
;
'Boull\'e A.'
;
Centre National de la Recherche Scientifique (CNRS)
Paris
France
;

# Standardized crystallographic data

_cell_length_a                           7.3617
_cell_length_b                           10.005
_cell_length_c                           8.2067
_cell_angle_alpha                        90
_cell_angle_beta                         106.436
_cell_angle_gamma                        90
_cell_volume                             579.8
_cell_formula_units_Z                    4
_space_group_IT_number                   14
_space_group_name_H-M_alt                'P 1 21/c 1'
loop_
 _space_group_symop_id
 _space_group_symop_operation_xyz
 1 'x, y, z'
 2 '-x, -y, -z'
 3 '-x, 1/2+y, 1/2-z'
 4 'x, 1/2-y, 1/2+z'

# Atomic positions taken from type-defining entry

loop_
 _atom_type_symbol
 O
 P
 K
 Fe
loop_
 _atom_site_label
 _atom_site_type_symbol
 _atom_site_symmetry_multiplicity
 _atom_site_Wyckoff_symbol
 _atom_site_fract_x
 _atom_site_fract_y
 _atom_site_fract_z
 _atom_site_occupancy
 O1 O 4 e 0.0167 0.0041 0.2762 1
 O2 O 4 e 0.0865 0.2603 0.2553 1
 P1 P 4 e 0.12959 0.40439 0.33234 1
 O3 O 4 e 0.149 0.0905 0.0215 1
 K1 K 4 e 0.18038 0.68265 0.05451 1
 Fe1 Fe 4 e 0.2369 0.09985 0.26048 1
 O4 O 4 e 0.3216 0.3947 0.0046 1
 O5 O 4 e 0.3305 0.4514 0.3071 1
 P2 P 4 e 0.43728 0.3673 0.18908 1
 O6 O 4 e 0.445 0.2165 0.2451 1
 O7 O 4 e 0.6363 0.4275 0.2356 1


_exptl_crystal_colour                    ?
_exptl_crystal_density_meas              3.079
_exptl_crystal_density_diffrn            3.08
_cell_measurement_temperature            ?
_cell_measurement_radiation              X-rays
_cell_measurement_reflns_used            ?
_diffrn_ambient_temperature              ?
_diffrn_measurement_device               film
_diffrn_measurement_device_type          ?
_diffrn_radiation_type                   ?
_diffrn_reflns_number                    ?
_exptl_absorpt_coefficient_mu            ?
_exptl_absorpt_correction_type           ?
_computing_structure_solution            ?
_refine_ls_number_parameters             ?
_refine_ls_number_reflns                 ?
_refine_ls_R_factor_gt                   ?
_refine_ls_wR_factor_gt                  ?

# End of data set 549182


