##############################################################################
#                                                                            #
# Fe-K-S           # KFeS2                                         #  546165 #
#                                                                            #
##############################################################################
#                                                                            #
#                           Pearson's Crystal Data                           #
#      Crystal Structure Database for Inorganic Compounds (on DVD)           #
#                              Release 2017/18                               #
#                  Editors: Pierre Villars and Karin Cenzual                 #
#                                                                            #
#   Copyright (c) ASM International & Material Phases Data System (MPDS),    #
# Switzerland & National Institute for Materials Science (NIMS), Japan, 2017 #
#                   All rights reserved. Version 2017.08                     #
#                                                                            #
#   This copy of Pearson's Crystal Data is licensed to:                      #
#   University of Alberta, Chemistry Department, 1-5 Installations License         #
#                                                                            #
##############################################################################

data_546165
_audit_creation_date                     2017-12-04
_audit_creation_method
;
Pearson's Crystal Data browser
;
#_database_code_PCD                      546165

# Entry summary

_chemical_formula_structural             'K Fe S~2~'
_chemical_formula_sum                    'Fe K S2'
_chemical_name_mineral                   ?
_chemical_compound_source                ?
_chemical_name_structure_type            KFeS~2~,mS16,15
_chemical_formula_weight                 159.1

# Bibliographic data

_publ_section_title
'Magnetic Ordering in the Chain Compound KFeS~2~'                             
_journal_coden_ASTM                      PSSABA
_journal_name_full                       'Phys. Status Solidi A'
_journal_year                            1980
_journal_volume                          57
_journal_page_first                      K25
_journal_page_last                       K30
_journal_language                        English
loop_
 _publ_author_name
 _publ_author_address
'Tomkowicz Z.'
;
Cracow Jagiellonian University (UJ)
Smoluchowski M. Institute of Physics
Cracow
Poland
;
'Szytula A.'
;
Cracow Jagiellonian University (UJ)
Smoluchowski M. Institute of Physics
Cracow
Poland
;
'Ptasiewicz Bak H.'
;
Swierk-Otwock Research Establishment
Institute of Nuclear Research
Swierk-Otwock
Poland
;

# Standardized crystallographic data

_cell_length_a                           7.048
_cell_length_b                           11.233
_cell_length_c                           5.399
_cell_angle_alpha                        90
_cell_angle_beta                         113.3
_cell_angle_gamma                        90
_cell_volume                             392.58
_cell_formula_units_Z                    4
_space_group_IT_number                   15
_space_group_name_H-M_alt                'C 1 2/c 1'
loop_
 _space_group_symop_id
 _space_group_symop_operation_xyz
 1 'x, y, z'
 2 '-x, -y, -z'
 3 '-x, y, 1/2-z'
 4 'x, -y, 1/2+z'
 5 '1/2+x, 1/2+y, z'
 6 '1/2-x, 1/2-y, -z'
 7 '1/2-x, 1/2+y, 1/2-z'
 8 '1/2+x, 1/2-y, 1/2+z'
loop_
 _atom_type_symbol
 S
 K
 Fe
loop_
 _atom_site_label
 _atom_site_type_symbol
 _atom_site_symmetry_multiplicity
 _atom_site_Wyckoff_symbol
 _atom_site_fract_x
 _atom_site_fract_y
 _atom_site_fract_z
 _atom_site_occupancy
 S S 8 f 0.203 0.39 0.117 1
 K K 4 e 0 0.143 0.25 1
 Fe Fe 4 e 0 0.493 0.25 1


_exptl_crystal_colour                    ?
_exptl_crystal_density_meas              ?
_exptl_crystal_density_diffrn            2.69
_cell_measurement_temperature            80
_cell_measurement_radiation              neutrons
_cell_measurement_wavelength             1.324
_pd_proc_wavelength                      1.324
_cell_measurement_reflns_used            ?
_diffrn_ambient_temperature              80
_diffrn_measurement_device               'automatic diffractometer'
_diffrn_measurement_device_type
'Poland, Swierk, Institute of Nuclear Research, EWA reactor, DN-500'          
_diffrn_radiation_type                   neutrons
_diffrn_radiation_wavelength             1.324
_diffrn_reflns_number                    ?
_exptl_absorpt_coefficient_mu            ?
_exptl_absorpt_correction_type           ?
_computing_structure_solution            'starting values from the literature'
_refine_ls_number_parameters             ?
_refine_ls_number_reflns                 ?
_refine_ls_R_factor_gt                   0.0913
_refine_ls_wR_factor_gt                  ?
_pd_proc_ls_proof_R_factor               ?
_pd_proc_ls_proof_wR_factor              ?
_refine_ls_R_I_factor                    ?

# End of data set 546165


