##############################################################################
#                                                                            #
# Fe-K-S           # KFeS2                                         #  382302 #
#                                                                            #
##############################################################################
#                                                                            #
#                           Pearson's Crystal Data                           #
#      Crystal Structure Database for Inorganic Compounds (on DVD)           #
#                              Release 2017/18                               #
#                  Editors: Pierre Villars and Karin Cenzual                 #
#                                                                            #
#   Copyright (c) ASM International & Material Phases Data System (MPDS),    #
# Switzerland & National Institute for Materials Science (NIMS), Japan, 2017 #
#                   All rights reserved. Version 2017.08                     #
#                                                                            #
#   This copy of Pearson's Crystal Data is licensed to:                      #
#   University of Alberta, Chemistry Department, 1-5 Installations License         #
#                                                                            #
##############################################################################

data_382302
_audit_creation_date                     2017-12-01
_audit_creation_method
;
Pearson's Crystal Data browser
;
#_database_code_PCD                      382302

# Entry summary

_chemical_formula_structural             'K Fe S~2~'
_chemical_formula_sum                    'Fe K S2'
_chemical_name_mineral                   ?
_chemical_compound_source                ?
_chemical_name_structure_type            KFeS~2~,mS16,15
_chemical_formula_weight                 159.1

# Bibliographic data

_publ_section_title
;
Experimental electron-density-distribution study of potassium iron disulfide, a low-dimensional material
;
_journal_coden_ASTM                      PRBMDO
_journal_name_full
'Phys. Rev. B: Condens. Matter Mater. Phys.'                                  
_journal_year                            1988
_journal_volume                          37
_journal_page_first                      1109
_journal_page_last                       1120
_journal_language                        English
loop_
 _publ_author_name
 _publ_author_address
'Pant A.K.'
;
Gorakhpur Uttar Pradesh University
Department of Physics
Gorakhpur / Uttar Pradesh
India
;
'Stevens E.D.'
;
Louisiana New Orleans University
Department of Chemistry
New Orleans
U.S.A. Louisiana
;

# Standardized crystallographic data

_cell_length_a                           7.079
_cell_length_b                           11.304
_cell_length_c                           5.398
_cell_angle_alpha                        90
_cell_angle_beta                         113.2
_cell_angle_gamma                        90
_cell_volume                             397
_cell_formula_units_Z                    4
_space_group_IT_number                   15
_space_group_name_H-M_alt                'C 1 2/c 1'
loop_
 _space_group_symop_id
 _space_group_symop_operation_xyz
 1 'x, y, z'
 2 '-x, -y, -z'
 3 '-x, y, 1/2-z'
 4 'x, -y, 1/2+z'
 5 '1/2+x, 1/2+y, z'
 6 '1/2-x, 1/2-y, -z'
 7 '1/2-x, 1/2+y, 1/2-z'
 8 '1/2+x, 1/2-y, 1/2+z'
loop_
 _atom_type_symbol
 S
 K
 Fe
loop_
 _atom_site_label
 _atom_site_type_symbol
 _atom_site_symmetry_multiplicity
 _atom_site_Wyckoff_symbol
 _atom_site_fract_x
 _atom_site_fract_y
 _atom_site_fract_z
 _atom_site_occupancy
 S S 8 f 0.19593 0.38998 0.10678 1
 K K 4 e 0 0.14312 0.25 1
 Fe Fe 4 e 0 0.50342 0.25 1


_exptl_crystal_colour                    violet
_exptl_crystal_density_meas              ?
_exptl_crystal_density_diffrn            2.66
_cell_measurement_temperature            ?
_cell_measurement_radiation              'X-rays, Ag Ka1'
_cell_measurement_wavelength             0.55941
_cell_measurement_reflns_used            30
_diffrn_ambient_temperature              ?
_diffrn_measurement_device               'automatic diffractometer'
_diffrn_measurement_device_type          'Picker FACS-I'
_diffrn_radiation_type                   'X-rays, Ag Ka'
_diffrn_radiation_wavelength             0.55941
_diffrn_reflns_number                    10717
_exptl_absorpt_coefficient_mu            2.883
_exptl_absorpt_correction_type           ?
_computing_structure_solution            'starting values from the literature'
_refine_ls_number_parameters             86
_refine_ls_number_reflns                 1742
_refine_ls_R_factor_gt                   0.0342
_refine_ls_wR_factor_gt                  0.0424

# End of data set 382302


