##############################################################################
#                                                                            #
# C-Gd-H-K-O       # KGd[CO3]2[H2O]3                               #  377675 #
#                                                                            #
##############################################################################
#                                                                            #
#                           Pearson's Crystal Data                           #
#      Crystal Structure Database for Inorganic Compounds (on DVD)           #
#                              Release 2017/18                               #
#                  Editors: Pierre Villars and Karin Cenzual                 #
#                                                                            #
#   Copyright (c) ASM International & Material Phases Data System (MPDS),    #
# Switzerland & National Institute for Materials Science (NIMS), Japan, 2017 #
#                   All rights reserved. Version 2017.08                     #
#                                                                            #
#   This copy of Pearson's Crystal Data is licensed to:                      #
#   University of Alberta, Chemistry Department, 1-5 Installations License         #
#                                                                            #
##############################################################################

data_377675
_audit_creation_date                     2017-12-01
_audit_creation_method
;
Pearson's Crystal Data browser
;
#_database_code_PCD                      377675

# Entry summary

_chemical_formula_structural             'K Gd [C O~3~]~2~ [H~2~ O]~3~'
_chemical_formula_sum                    'C2 Gd H6 K O9'
_chemical_name_mineral                   ?
_chemical_compound_source                ?
_chemical_name_structure_type            *,mP8,14
_chemical_formula_weight                 370.4

# Bibliographic data

_publ_section_title
;
Etude aux rayons X du dicarbonatogadolinate de potassium trihydrat\'e
;
_journal_coden_ASTM                      CHDCAQ
_journal_name_full                       'C. R. Seances Acad. Sci., Ser. C'
_journal_year                            1971
_journal_volume                          273
_journal_page_first                      692
_journal_page_last                       695
_journal_language                        French
loop_
 _publ_author_name
 _publ_author_address
'Delaunay J.'
;
Grenoble
France
;
'De Polignac A.'
;
Grenoble
France
;
'Fromage F.'
;
Grenoble
France
;
'Despujols J.'
;
Grenoble
France
;

# Standardized crystallographic data

_cell_length_a                           9.53
_cell_length_b                           6.26
_cell_length_c                           13.3
_cell_angle_alpha                        90
_cell_angle_beta                         94.
_cell_angle_gamma                        90
_cell_volume                             791.5
_cell_formula_units_Z                    4
_space_group_IT_number                   14
_space_group_name_H-M_alt                'P 1 21/c 1'
loop_
 _space_group_symop_id
 _space_group_symop_operation_xyz
 1 'x, y, z'
 2 '-x, -y, -z'
 3 '-x, 1/2+y, 1/2-z'
 4 'x, 1/2-y, 1/2+z'
loop_
 _atom_type_symbol
 K
 Gd
loop_
 _atom_site_label
 _atom_site_type_symbol
 _atom_site_symmetry_multiplicity
 _atom_site_Wyckoff_symbol
 _atom_site_fract_x
 _atom_site_fract_y
 _atom_site_fract_z
 _atom_site_occupancy
 K K 4 e 0.0 0.18 0.13 1
 Gd Gd 4 e 0.48 0.325 0.372 1


_exptl_crystal_colour                    white
_exptl_crystal_density_meas              3.09
_exptl_crystal_density_diffrn            3.11
_cell_measurement_temperature            ?
_cell_measurement_radiation              'X-rays, Mo Ka'
_cell_measurement_reflns_used            ?
_diffrn_ambient_temperature              ?
_diffrn_measurement_device               film
_diffrn_measurement_device_type          ?
_diffrn_radiation_type                   'X-rays, Mo Ka'
_diffrn_reflns_number                    ?
_exptl_absorpt_coefficient_mu            ?
_exptl_absorpt_correction_type           ?
_computing_structure_solution            'Patterson and Fourier synthesis'
_refine_ls_number_parameters             ?
_refine_ls_number_reflns                 ?
_refine_ls_R_factor_gt                   ?
_refine_ls_wR_factor_gt                  ?
_pd_proc_ls_proof_R_factor               ?
_pd_proc_ls_proof_wR_factor              ?
_refine_ls_R_I_factor                    ?

# Published diffraction lines

loop_
 _refln_index_h
 _refln_index_k
 _refln_index_l
 _refln_d_spacing
 _refln_intensity_meas
 0 0 1 95.7 5
 1 1 0 56.44 2
 0 0 2 47.75 3
 2 1 0 45.47 5
 -2 1 1 42.1 5
 2 1 1 39.97 5
 4 0 0 33.04 5
 -4 0 1 32.29 3
 0 0 3 31.79 3
 0 2 0 31.36 3
 4 0 1 30.52 2
 -1 2 1 29.21 2
 1 2 1 28.72 3
 -4 1 1 27.53 2
 -3 0 3 27.04 1.5
 0 0 4 23.86 1.5
 -4 1 3 22.48 2

# End of data set 377675


