##############################################################################
#                                                                            #
# Gd-K-O-P         # KGdP4O12 mon2                                 # 1522528 #
#                                                                            #
##############################################################################
#                                                                            #
#                           Pearson's Crystal Data                           #
#      Crystal Structure Database for Inorganic Compounds (on DVD)           #
#                              Release 2017/18                               #
#                  Editors: Pierre Villars and Karin Cenzual                 #
#                                                                            #
#   Copyright (c) ASM International & Material Phases Data System (MPDS),    #
# Switzerland & National Institute for Materials Science (NIMS), Japan, 2017 #
#                   All rights reserved. Version 2017.08                     #
#                                                                            #
#   This copy of Pearson's Crystal Data is licensed to:                      #
#   University of Alberta, Chemistry Department, 1-5 Installations License         #
#                                                                            #
##############################################################################

data_1522528
_audit_creation_date                     2017-12-05
_audit_creation_method
;
Pearson's Crystal Data browser
;
#_database_code_PCD                      1522528

# Entry summary

_chemical_formula_structural             'K Gd P~4~ O~12~'
_chemical_formula_sum                    'Gd K O12 P4'
_chemical_name_mineral                   ?
_chemical_compound_source                ?
_chemical_name_structure_type            KNdP~4~O~12~,mP36,4
_chemical_formula_weight                 512.2

# Bibliographic data

_publ_section_title
;
Crystal structure and optical characterization of pure and Nd-substituted type III KGd(PO~3~)~4~
;
_journal_coden_ASTM                      CMATEX
_journal_name_full                       'Chem. Mater.'
_journal_year                            2006
_journal_volume                          18
_journal_page_first                      221
_journal_page_last                       228
_journal_language                        English
loop_
 _publ_author_name
 _publ_author_address
'Parreu I.'
;
Tarragona Rovira i Virgili University
Laboratorio de Fisica i Cristallografia de Materials (FiCMA)
Tarragona
Spain
;
'Carvajal J.J.'
;
Tarragona Rovira i Virgili University
Laboratorio de Fisica i Cristallografia de Materials (FiCMA)
Tarragona
Spain
;
'Solans X.'
;
Barcelona University
Departamento de Cristallografia, Mineralogia i Diposits Minerals
Barcelona
Spain
;
'Diaz F.'
;
Tarragona Rovira i Virgili University
Laboratorio de Fisica i Cristallografia de Materials (FiCMA)
Tarragona
Spain
;
'Aguilo M.'
;
Tarragona Rovira i Virgili University
Laboratorio de Fisica i Cristallografia de Materials (FiCMA)
Tarragona
Spain
;

# Standardized crystallographic data

_cell_length_a                           7.255
_cell_length_b                           8.356
_cell_length_c                           7.934
_cell_angle_alpha                        90
_cell_angle_beta                         91.68
_cell_angle_gamma                        90
_cell_volume                             480.77
_cell_formula_units_Z                    2
_space_group_IT_number                   4
_space_group_name_H-M_alt                'P 1 21 1'
loop_
 _space_group_symop_id
 _space_group_symop_operation_xyz
 1 'x, y, z'
 2 '-x, 1/2+y, -z'
loop_
 _atom_type_symbol
 P
 O
 K
 Gd
loop_
 _atom_site_label
 _atom_site_type_symbol
 _atom_site_symmetry_multiplicity
 _atom_site_Wyckoff_symbol
 _atom_site_fract_x
 _atom_site_fract_y
 _atom_site_fract_z
 _atom_site_occupancy
 P4 P 2 a -0.0053 0.0971 0.1177 1
 O3 O 2 a 0.0078 0.0 0.2842 1
 O7 O 2 a 0.0357 0.0138 0.9675 1
 O11 O 2 a 0.038 0.3979 0.4231 1
 O1 O 2 a 0.0949 0.2145 0.6698 1
 P1 P 2 a 0.101 0.3738 0.6005 1
 O8 O 2 a 0.1779 0.2172 0.1581 1
 K K 2 a 0.264 0.6502 0.2276 1
 O2 O 2 a 0.3077 0.4222 0.6119 1
 P3 P 2 a 0.3821 0.206 0.102 1
 O6 O 2 a 0.432 0.0263 0.5337 1
 O9 O 2 a 0.4476 0.0783 0.2221 1
 O10 O 2 a 0.4656 0.3718 0.1461 1
 P2 P 2 a 0.5604 0.0852 0.4024 1
 O12 O 2 a 0.6065 0.6538 0.0765 1
 O5 O 2 a 0.681 0.2163 0.4231 1
 Gd Gd 2 a 0.7624 0.4533 0.2574 1
 O4 O 2 a 0.83 0.2133 0.1154 1


_exptl_crystal_colour                    colorless
_exptl_crystal_density_meas              ?
_exptl_crystal_density_diffrn            3.54
_cell_measurement_temperature            293
_cell_measurement_radiation              'X-rays, Mo Ka'
_cell_measurement_wavelength             0.71069
_cell_measurement_reflns_used            25
_diffrn_ambient_temperature              293
_diffrn_measurement_device               'automatic diffractometer'
_diffrn_measurement_device_type          'Enraf-Nonius CAD4'
_diffrn_radiation_type                   'X-rays, Mo Ka'
_diffrn_radiation_wavelength             0.71069
_diffrn_reflns_number                    1834
_exptl_absorpt_coefficient_mu            8.062
_exptl_absorpt_correction_type           ?
_computing_structure_solution            'Patterson synthesis'
_refine_ls_number_parameters             162
_refine_ls_number_reflns                 1474
_refine_ls_R_factor_gt                   0.0675
_refine_ls_wR_factor_gt                  0.1560

# End of data set 1522528


