##############################################################################
#                                                                            #
# Hg-K-S-Sb        # KHgSbS3                                       #  462218 #
#                                                                            #
##############################################################################
#                                                                            #
#                           Pearson's Crystal Data                           #
#      Crystal Structure Database for Inorganic Compounds (on DVD)           #
#                              Release 2017/18                               #
#                  Editors: Pierre Villars and Karin Cenzual                 #
#                                                                            #
#   Copyright (c) ASM International & Material Phases Data System (MPDS),    #
# Switzerland & National Institute for Materials Science (NIMS), Japan, 2017 #
#                   All rights reserved. Version 2017.08                     #
#                                                                            #
#   This copy of Pearson's Crystal Data is licensed to:                      #
#   University of Alberta, Chemistry Department, 1-5 Installations License         #
#                                                                            #
##############################################################################

data_462218
_audit_creation_date                     2017-12-01
_audit_creation_method
;
Pearson's Crystal Data browser
;
#_database_code_PCD                      462218

# Entry summary

_chemical_formula_structural             'K Hg Sb S~3~'
_chemical_formula_sum                    'Hg K S3 Sb'
_chemical_name_mineral                   ?
_chemical_compound_source                ?
_chemical_name_structure_type            KHgSbS~3~,mS48,15
_chemical_formula_weight                 457.6

# Bibliographic data

_publ_section_title
'The crystal structure of a new synthetic sulfosalt, KHgSbS~3~'               
_journal_coden_ASTM                      MRBUAC
_journal_name_full                       'Mater. Res. Bull.'
_journal_year                            1986
_journal_volume                          21
_journal_page_first                      493
_journal_page_last                       501
_journal_language                        English
loop_
 _publ_author_name
 _publ_author_address
'Imafuku M.'
;
Tsukuba Ibaraki University
Department of Chemistry
Tsukuba / Ibaraki
Japan
;
'Nakai I.'
;
Tsukuba Ibaraki University
Department of Chemistry
Tsukuba / Ibaraki
Japan
;
'Nagashima K.'
;
Tsukuba Ibaraki University
Department of Chemistry
Tsukuba / Ibaraki
Japan
;

# Standardized crystallographic data

_cell_length_a                           8.951
_cell_length_b                           8.647
_cell_length_c                           16.9945
_cell_angle_alpha                        90
_cell_angle_beta                         104.674
_cell_angle_gamma                        90
_cell_volume                             1272.5
_cell_formula_units_Z                    8
_space_group_IT_number                   15
_space_group_name_H-M_alt                'C 1 2/c 1'
loop_
 _space_group_symop_id
 _space_group_symop_operation_xyz
 1 'x, y, z'
 2 '-x, -y, -z'
 3 '-x, y, 1/2-z'
 4 'x, -y, 1/2+z'
 5 '1/2+x, 1/2+y, z'
 6 '1/2-x, 1/2-y, -z'
 7 '1/2-x, 1/2+y, 1/2-z'
 8 '1/2+x, 1/2-y, 1/2+z'
loop_
 _atom_type_symbol
 S
 Sb
 K
 Hg
loop_
 _atom_site_label
 _atom_site_type_symbol
 _atom_site_symmetry_multiplicity
 _atom_site_Wyckoff_symbol
 _atom_site_fract_x
 _atom_site_fract_y
 _atom_site_fract_z
 _atom_site_occupancy
 S(3) S 8 f 0.0277 0.2775 0.3949 1
 Sb Sb 8 f 0.171 0.0888 0.0956 1
 S(1) S 8 f 0.2374 0.0071 0.2339 1
 K K 8 f 0.3227 0.071 0.4195 1
 S(2) S 8 f 0.3928 0.2602 0.1053 1
 Hg(2) Hg 4 e 0 0.3283 0.25 1
 Hg(1) Hg 4 e 0 0.8098 0.25 1


_exptl_crystal_colour                    orange
_exptl_crystal_density_meas              4.8(2)
_exptl_crystal_density_diffrn            4.78
_cell_measurement_temperature            ?
_cell_measurement_radiation              'X-rays, Cu Ka'
_cell_measurement_wavelength             1.5418
_cell_measurement_reflns_used            25
_diffrn_ambient_temperature              ?
_diffrn_measurement_device               'automatic diffractometer'
_diffrn_measurement_device_type          'Rigaku AFC5'
_diffrn_radiation_type                   'X-rays, Cu Ka'
_diffrn_radiation_wavelength             1.5418
_diffrn_reflns_number                    ?
_exptl_absorpt_coefficient_mu            94.38
_exptl_absorpt_correction_type           analytical
_computing_structure_solution            'Patterson and Fourier synthesis'
_refine_ls_number_parameters             ?
_refine_ls_number_reflns                 737
_refine_ls_R_factor_gt                   0.082
_refine_ls_wR_factor_gt                  0.084

# End of data set 462218


