##############################################################################
#                                                                            #
# Ge-In-K-O        # KInGe2O6                                      # 1000106 #
#                                                                            #
##############################################################################
#                                                                            #
#                           Pearson's Crystal Data                           #
#      Crystal Structure Database for Inorganic Compounds (on DVD)           #
#                              Release 2017/18                               #
#                  Editors: Pierre Villars and Karin Cenzual                 #
#                                                                            #
#   Copyright (c) ASM International & Material Phases Data System (MPDS),    #
# Switzerland & National Institute for Materials Science (NIMS), Japan, 2017 #
#                   All rights reserved. Version 2017.08                     #
#                                                                            #
#   This copy of Pearson's Crystal Data is licensed to:                      #
#   University of Alberta, Chemistry Department, 1-5 Installations License         #
#                                                                            #
##############################################################################

data_1000106
_audit_creation_date                     2017-12-04
_audit_creation_method
;
Pearson's Crystal Data browser
;
#_database_code_PCD                      1000106

# Entry summary

_chemical_formula_structural             'K In Ge~2~ O~6~'
_chemical_formula_sum                    'Ge2 In K O6'
_chemical_name_mineral                   ?
_chemical_compound_source                ?
_chemical_name_structure_type            CaMgSi~2~O~6~,mS40,15
_chemical_formula_weight                 395.1

# Bibliographic data

_publ_section_title
'Synthesis and crystal structure of K, In pyroxene KInGe~2~O~6~'              
_journal_coden_ASTM                      SPHCA6
_journal_name_full                       'Sov. Phys. Crystallogr.'
_journal_year                            1988
_journal_volume                          33
_journal_page_first                      655
_journal_page_last                       658
_journal_language                        English
loop_
 _publ_author_name
 _publ_author_address
'Genkina E.A.'
;
Russian Academy of Sciences
Shubnikov A.V. Institute of Crystallography
Moscow
Russia
;
'Demyanets L.N.'
;
Russian Academy of Sciences
Shubnikov A.V. Institute of Crystallography
Moscow
Russia
;

# Standardized crystallographic data

_cell_length_a                           10.304
_cell_length_b                           9.509
_cell_length_c                           5.617
_cell_angle_alpha                        90
_cell_angle_beta                         104.9
_cell_angle_gamma                        90
_cell_volume                             531.9
_cell_formula_units_Z                    4
_space_group_IT_number                   15
_space_group_name_H-M_alt                'C 1 2/c 1'
loop_
 _space_group_symop_id
 _space_group_symop_operation_xyz
 1 'x, y, z'
 2 '-x, -y, -z'
 3 '-x, y, 1/2-z'
 4 'x, -y, 1/2+z'
 5 '1/2+x, 1/2+y, z'
 6 '1/2-x, 1/2-y, -z'
 7 '1/2-x, 1/2+y, 1/2-z'
 8 '1/2+x, 1/2-y, 1/2+z'
loop_
 _atom_type_symbol
 O
 Ge
 K
 In
loop_
 _atom_site_label
 _atom_site_type_symbol
 _atom_site_symmetry_multiplicity
 _atom_site_Wyckoff_symbol
 _atom_site_fract_x
 _atom_site_fract_y
 _atom_site_fract_z
 _atom_site_occupancy
 O1 O 8 f 0.1096 0.4284 0.1308 1
 O3 O 8 f 0.1493 0.015 0.0235 1
 Ge Ge 8 f 0.2851 0.4107 0.2095 1
 O2 O 8 f 0.3486 0.2445 0.2835 1
 K K 4 e 0 0.1891 0.25 1
 In In 4 e 0 0.6025 0.25 1


_exptl_crystal_colour                    colorless
_exptl_crystal_density_meas              ?
_exptl_crystal_density_diffrn            4.93
_cell_measurement_temperature            ?
_cell_measurement_radiation              'X-rays, Mo Ka'
_cell_measurement_reflns_used            25
_diffrn_ambient_temperature              ?
_diffrn_measurement_device               'automatic diffractometer'
_diffrn_measurement_device_type          'Enraf-Nonius CAD4F'
_diffrn_radiation_type                   'X-rays, Mo Ka'
_diffrn_reflns_number                    ?
_exptl_absorpt_coefficient_mu            ?
_exptl_absorpt_correction_type           ?
_computing_structure_solution            'starting values from the literature'
_refine_ls_number_parameters             ?
_refine_ls_number_reflns                 1134
_refine_ls_R_factor_gt                   0.042
_refine_ls_wR_factor_gt                  ?

# End of data set 1000106


