##############################################################################
#                                                                            #
# Ge-K-La-Se       # KLaGeSe4                                      #  537613 #
#                                                                            #
##############################################################################
#                                                                            #
#                           Pearson's Crystal Data                           #
#      Crystal Structure Database for Inorganic Compounds (on DVD)           #
#                              Release 2017/18                               #
#                  Editors: Pierre Villars and Karin Cenzual                 #
#                                                                            #
#   Copyright (c) ASM International & Material Phases Data System (MPDS),    #
# Switzerland & National Institute for Materials Science (NIMS), Japan, 2017 #
#                   All rights reserved. Version 2017.08                     #
#                                                                            #
#   This copy of Pearson's Crystal Data is licensed to:                      #
#   University of Alberta, Chemistry Department, 1-5 Installations License         #
#                                                                            #
##############################################################################

data_537613
_audit_creation_date                     2017-12-04
_audit_creation_method
;
Pearson's Crystal Data browser
;
#_database_code_PCD                      537613

# Entry summary

_chemical_formula_structural             'K La Ge Se~4~'
_chemical_formula_sum                    'Ge K La Se4'
_chemical_name_mineral                   ?
_chemical_compound_source                ?
_chemical_name_structure_type            KLaGeS~4~,mP14,4
_chemical_formula_weight                 566.4

# Bibliographic data

_publ_section_title
;
Synthesis and Structures of the Quaternary Chalcogenides of the Type KLnMQ~4~ (Ln= La, Nd, Gd, Y; M= Si, Ge; Q= S, Se)
;
_journal_coden_ASTM                      JSSCBI
_journal_name_full                       'J. Solid State Chem.'
_journal_year                            1993
_journal_volume                          107
_journal_page_first                      347
_journal_page_last                       355
_journal_language                        English
loop_
 _publ_author_name
 _publ_author_address
'Wu P.'
;
Illinois Evanston Northwestern University
Department of Chemistry
Evanston
U.S.A. Illinois
;
'Ibers J.A.'
;
Illinois Evanston Northwestern University
Department of Chemistry
Evanston
U.S.A. Illinois
;

# Standardized crystallographic data

_cell_length_a                           6.875
_cell_length_b                           7.002
_cell_length_c                           8.942
_cell_angle_alpha                        90
_cell_angle_beta                         107.84
_cell_angle_gamma                        90
_cell_volume                             409.8
_cell_formula_units_Z                    2
_space_group_IT_number                   4
_space_group_name_H-M_alt                'P 1 21 1'
loop_
 _space_group_symop_id
 _space_group_symop_operation_xyz
 1 'x, y, z'
 2 '-x, 1/2+y, -z'
loop_
 _atom_type_symbol
 Se
 Ge
 La
 K
loop_
 _atom_site_label
 _atom_site_type_symbol
 _atom_site_symmetry_multiplicity
 _atom_site_Wyckoff_symbol
 _atom_site_fract_x
 _atom_site_fract_y
 _atom_site_fract_z
 _atom_site_occupancy
 Se(1) Se 2 a 0.00996 0.25632 0.27761 1
 Se(2) Se 2 a 0.02955 0.27359 0.73514 1
 Ge Ge 2 a 0.21582 0.5291 0.31393 1
 La La 2 a 0.23227 0.0 0.55461 1
 K K 2 a 0.2594 0.00909 0.0632 1
 Se(3) Se 2 a 0.41336 0.53302 0.14668 1
 Se(4) Se 2 a 0.58513 0.07534 0.42294 1


_exptl_crystal_colour                    'brown yellow'
_exptl_crystal_density_meas              ?
_exptl_crystal_density_diffrn            4.59
_cell_measurement_temperature            295
_cell_measurement_radiation              'X-rays, Cu Ka'
_cell_measurement_reflns_used            ?
_diffrn_ambient_temperature              115
_diffrn_measurement_device               'automatic diffractometer'
_diffrn_measurement_device_type          Picker
_diffrn_radiation_type                   'X-rays, Mo Ka'
_diffrn_radiation_wavelength             0.7093
_diffrn_reflns_number                    ?
_exptl_absorpt_coefficient_mu            26.78
_exptl_absorpt_correction_type           ?
_computing_structure_solution            'starting values from the literature'
_refine_ls_number_parameters             66
_refine_ls_number_reflns                 2965
_refine_ls_R_factor_gt                   0.041
_refine_ls_wR_factor_gt                  0.100

# End of data set 537613


