##############################################################################
#                                                                            #
# Ge-K-La-S        # KLaGeS4                                       #  537606 #
#                                                                            #
##############################################################################
#                                                                            #
#                           Pearson's Crystal Data                           #
#      Crystal Structure Database for Inorganic Compounds (on DVD)           #
#                              Release 2017/18                               #
#                  Editors: Pierre Villars and Karin Cenzual                 #
#                                                                            #
#   Copyright (c) ASM International & Material Phases Data System (MPDS),    #
# Switzerland & National Institute for Materials Science (NIMS), Japan, 2017 #
#                   All rights reserved. Version 2017.08                     #
#                                                                            #
#   This copy of Pearson's Crystal Data is licensed to:                      #
#   University of Alberta, Chemistry Department, 1-5 Installations License         #
#                                                                            #
##############################################################################

data_537606
_audit_creation_date                     2017-12-04
_audit_creation_method
;
Pearson's Crystal Data browser
;
#_database_code_PCD                      537606

# Entry summary

_chemical_formula_structural             'K La Ge S~4~'
_chemical_formula_sum                    'Ge K La S4'
_chemical_name_mineral                   ?
_chemical_compound_source                ?
_chemical_name_structure_type            KLaGeS~4~,mP14,4
_chemical_formula_weight                 378.8

# Bibliographic data

_publ_section_title
;
Synthesis and Structures of the Quaternary Chalcogenides of the Type KLnMQ~4~ (Ln= La, Nd, Gd, Y; M= Si, Ge; Q= S, Se)
;
_journal_coden_ASTM                      JSSCBI
_journal_name_full                       'J. Solid State Chem.'
_journal_year                            1993
_journal_volume                          107
_journal_page_first                      347
_journal_page_last                       355
_journal_language                        English
loop_
 _publ_author_name
 _publ_author_address
'Wu P.'
;
Illinois Evanston Northwestern University
Department of Chemistry
Evanston
U.S.A. Illinois
;
'Ibers J.A.'
;
Illinois Evanston Northwestern University
Department of Chemistry
Evanston
U.S.A. Illinois
;

# Standardized crystallographic data

_cell_length_a                           6.653
_cell_length_b                           6.679
_cell_length_c                           8.643
_cell_angle_alpha                        90
_cell_angle_beta                         107.57
_cell_angle_gamma                        90
_cell_volume                             366.1
_cell_formula_units_Z                    2
_space_group_IT_number                   4
_space_group_name_H-M_alt                'P 1 21 1'
loop_
 _space_group_symop_id
 _space_group_symop_operation_xyz
 1 'x, y, z'
 2 '-x, 1/2+y, -z'
loop_
 _atom_type_symbol
 S
 Ge
 La
 K
loop_
 _atom_site_label
 _atom_site_type_symbol
 _atom_site_symmetry_multiplicity
 _atom_site_Wyckoff_symbol
 _atom_site_fract_x
 _atom_site_fract_y
 _atom_site_fract_z
 _atom_site_occupancy
 S(1) S 2 a 0.0147 0.25798 0.27989 1
 S(2) S 2 a 0.0188 0.26898 0.73214 1
 Ge Ge 2 a 0.21624 0.52594 0.31258 1
 La La 2 a 0.23221 0.0 0.5543 1
 K K 2 a 0.27155 0.01493 0.06556 1
 S(3) S 2 a 0.41368 0.52863 0.15277 1
 S(4) S 2 a 0.59168 0.06459 0.43019 1


_exptl_crystal_colour                    colorless
_exptl_crystal_density_meas              ?
_exptl_crystal_density_diffrn            3.44
_cell_measurement_temperature            115
_cell_measurement_radiation              'X-rays, Cu Ka'
_cell_measurement_reflns_used            50
_diffrn_ambient_temperature              115
_diffrn_measurement_device               'automatic diffractometer'
_diffrn_measurement_device_type          Picker
_diffrn_radiation_type                   'X-rays, Mo Ka'
_diffrn_radiation_wavelength             0.7093
_diffrn_reflns_number                    ?
_diffrn_reflns_theta_min                 0.246
_diffrn_reflns_theta_max                 7.678
_exptl_absorpt_coefficient_mu            11.39
_exptl_absorpt_correction_type           yes
_computing_structure_solution            'direct methods'
_refine_ls_number_parameters             66
_refine_ls_number_reflns                 2534
_refine_ls_R_factor_gt                   0.022
_refine_ls_wR_factor_gt                  0.060

# End of data set 537606


