##############################################################################
#                                                                            #
# K-Li-O-S         # KLi[SO4] rt                                   #  558709 #
#                                                                            #
##############################################################################
#                                                                            #
#                           Pearson's Crystal Data                           #
#      Crystal Structure Database for Inorganic Compounds (on DVD)           #
#                              Release 2017/18                               #
#                  Editors: Pierre Villars and Karin Cenzual                 #
#                                                                            #
#   Copyright (c) ASM International & Material Phases Data System (MPDS),    #
# Switzerland & National Institute for Materials Science (NIMS), Japan, 2017 #
#                   All rights reserved. Version 2017.08                     #
#                                                                            #
#   This copy of Pearson's Crystal Data is licensed to:                      #
#   University of Alberta, Chemistry Department, 1-5 Installations License         #
#                                                                            #
##############################################################################

data_558709
_audit_creation_date                     2017-12-04
_audit_creation_method
;
Pearson's Crystal Data browser
;
#_database_code_PCD                      558709

# Entry summary

_chemical_formula_structural             'K Li [S O~4~]'
_chemical_formula_sum                    'K Li O4 S'
_chemical_name_mineral                   ?
_chemical_compound_source                ?
_chemical_name_structure_type            KLi[SO~4~],hP14,173
_chemical_formula_weight                 142.1
_chemical_melting_point                  1008

# Bibliographic data

_publ_section_title                      'Dielectric Properties of KLiSO~4~'
_journal_coden_ASTM                      JUPSAU
_journal_name_full                       'J. Phys. Soc. Jpn.'
_journal_year                            1962
_journal_volume                          17
_journal_page_first                      937
_journal_page_last                       940
_journal_language                        English
loop_
 _publ_author_name
 _publ_author_address
'Ando R.'
;
Tokyo Institute of Technology
Department of Physics
Tokyo / Tokyo
Japan
;

# Standardized crystallographic data

_cell_length_a                           5.13
_cell_length_b                           5.13
_cell_length_c                           8.6
_cell_angle_alpha                        90
_cell_angle_beta                         90
_cell_angle_gamma                        120
_cell_volume                             196
_cell_formula_units_Z                    2
_space_group_IT_number                   173
_space_group_name_H-M_alt                'P 63'
loop_
 _space_group_symop_id
 _space_group_symop_operation_xyz
 1 'x, y, z'
 2 '-x+y, -x, z'
 3 '-x, -y, 1/2+z'
 4 '-y, x-y, z'
 5 'x-y, x, 1/2+z'
 6 'y, -x+y, 1/2+z'

# Atomic positions taken from type-defining entry

loop_
 _atom_type_symbol
 O
 S
 Li
 K
loop_
 _atom_site_label
 _atom_site_type_symbol
 _atom_site_symmetry_multiplicity
 _atom_site_Wyckoff_symbol
 _atom_site_fract_x
 _atom_site_fract_y
 _atom_site_fract_z
 _atom_site_occupancy
 O1 O 6 c 0.0575 0.4021 0.26 1
 O2 O 2 b 0.333333 0.666667 0.0372 1
 S1 S 2 b 0.333333 0.666667 0.2069 1
 Li1 Li 2 b 0.333333 0.666667 0.8196 1
 K1 K 2 a 0 0 0.0 1


_exptl_crystal_colour                    colorless
_exptl_crystal_density_meas              ?
_exptl_crystal_density_diffrn            2.41
_cell_measurement_temperature            ?
_cell_measurement_radiation              X-rays
_cell_measurement_reflns_used            ?
_diffrn_ambient_temperature              ?
_diffrn_measurement_device               film
_diffrn_measurement_device_type          ?
_diffrn_radiation_type                   ?
_diffrn_reflns_number                    ?
_exptl_absorpt_coefficient_mu            ?
_exptl_absorpt_correction_type           ?
_computing_structure_solution            ?
_refine_ls_number_parameters             ?
_refine_ls_number_reflns                 ?
_refine_ls_R_factor_gt                   ?
_refine_ls_wR_factor_gt                  ?

# End of data set 558709


