##############################################################################
#                                                                            #
# F-K-Li-Y         # KLiYF5                                        #  543416 #
#                                                                            #
##############################################################################
#                                                                            #
#                           Pearson's Crystal Data                           #
#      Crystal Structure Database for Inorganic Compounds (on DVD)           #
#                              Release 2017/18                               #
#                  Editors: Pierre Villars and Karin Cenzual                 #
#                                                                            #
#   Copyright (c) ASM International & Material Phases Data System (MPDS),    #
# Switzerland & National Institute for Materials Science (NIMS), Japan, 2017 #
#                   All rights reserved. Version 2017.08                     #
#                                                                            #
#   This copy of Pearson's Crystal Data is licensed to:                      #
#   University of Alberta, Chemistry Department, 1-5 Installations License         #
#                                                                            #
##############################################################################

data_543416
_audit_creation_date                     2017-12-04
_audit_creation_method
;
Pearson's Crystal Data browser
;
#_database_code_PCD                      543416

# Entry summary

_chemical_formula_structural             'K Li Y F~5~'
_chemical_formula_sum                    'F5 K Li Y'
_chemical_name_mineral                   ?
_chemical_compound_source                ?
_chemical_name_structure_type            KLiYF~5~,mP32,14
_chemical_formula_weight                 229.9

# Bibliographic data

_publ_section_title
'The structures of the phases formed in the LiF-KF-YF~3~ system'              
_journal_coden_ASTM                      RJICAQ
_journal_name_full                       'Russ. J. Inorg. Chem.'
_journal_year                            1992
_journal_volume                          37
_journal_page_first                      1459
_journal_page_last                       1463
_journal_language                        English
loop_
 _publ_author_name
 _publ_author_address
'Goryunov A.V.'
;
Russian Academy of Sciences
Kalinin Polytechnic Institute
Krasnoyarsk
Russia
;
'Popov A.I.'
;
Russian Academy of Sciences
Kurnakov N.S. Institute of General and Inorganic Chemistry
Moscow
Russia
;
'Khaidukov N.M.'
;
Russian Academy of Sciences
Kurnakov N.S. Institute of General and Inorganic Chemistry
Moscow
Russia
;
'Fedorov P.P.'
;
Russian Academy of Sciences
Shubnikov A.V. Institute of Crystallography
Moscow
Russia
;

# Standardized crystallographic data

_cell_length_a                           6.2925
_cell_length_b                           11.747
_cell_length_c                           6.4669
_cell_angle_alpha                        90
_cell_angle_beta                         113.715
_cell_angle_gamma                        90
_cell_volume                             437.7
_cell_formula_units_Z                    4
_space_group_IT_number                   14
_space_group_name_H-M_alt                'P 1 21/c 1'
loop_
 _space_group_symop_id
 _space_group_symop_operation_xyz
 1 'x, y, z'
 2 '-x, -y, -z'
 3 '-x, 1/2+y, 1/2-z'
 4 'x, 1/2-y, 1/2+z'
loop_
 _atom_type_symbol
 F
 K
 Y
 Li
loop_
 _atom_site_label
 _atom_site_type_symbol
 _atom_site_symmetry_multiplicity
 _atom_site_Wyckoff_symbol
 _atom_site_fract_x
 _atom_site_fract_y
 _atom_site_fract_z
 _atom_site_occupancy
 F3 F 4 e 0.0436 0.4925 0.3265 1
 K K 4 e 0.0508 0.6512 0.0369 1
 F2 F 4 e 0.2766 0.1948 0.2202 1
 Y Y 4 e 0.3174 0.0022 0.1793 1
 F5 F 4 e 0.3362 0.4676 0.0483 1
 Li Li 4 e 0.4431 0.2554 0.0394 1
 F1 F 4 e 0.5368 0.1051 0.0364 1
 F4 F 4 e 0.7115 0.3254 0.2196 1


_exptl_crystal_colour                    ?
_exptl_crystal_density_meas              3.48(2)
_exptl_crystal_density_diffrn            3.49
_cell_measurement_temperature            293
_cell_measurement_radiation              'X-rays, Mo Ka'
_cell_measurement_reflns_used            ?
_diffrn_ambient_temperature              293
_diffrn_measurement_device               'automatic diffractometer'
_diffrn_measurement_device_type          'Enraf-Nonius CAD4'
_diffrn_radiation_type                   'X-rays, Mo Ka'
_diffrn_reflns_number                    ?
_exptl_absorpt_coefficient_mu            ?
_exptl_absorpt_correction_type           ?
_computing_structure_solution            'Patterson and Fourier synthesis'
_refine_ls_number_parameters             ?
_refine_ls_number_reflns                 988
_refine_ls_R_factor_gt                   0.026
_refine_ls_wR_factor_gt                  0.026

# End of data set 543416


