##############################################################################
#                                                                            #
# F-K-Mn           # KMnF3 lt3                                     # 1521459 #
#                                                                            #
##############################################################################
#                                                                            #
#                           Pearson's Crystal Data                           #
#      Crystal Structure Database for Inorganic Compounds (on DVD)           #
#                              Release 2017/18                               #
#                  Editors: Pierre Villars and Karin Cenzual                 #
#                                                                            #
#   Copyright (c) ASM International & Material Phases Data System (MPDS),    #
# Switzerland & National Institute for Materials Science (NIMS), Japan, 2017 #
#                   All rights reserved. Version 2017.08                     #
#                                                                            #
#   This copy of Pearson's Crystal Data is licensed to:                      #
#   University of Alberta, Chemistry Department, 1-5 Installations License         #
#                                                                            #
##############################################################################

data_1521459
_audit_creation_date                     2017-12-05
_audit_creation_method
;
Pearson's Crystal Data browser
;
#_database_code_PCD                      1521459

# Entry summary

_chemical_formula_structural             'K Mn F~3~'
_chemical_formula_sum                    'F3 K Mn'
_chemical_name_mineral                   ?
_chemical_compound_source                ?
_chemical_name_structure_type            KCaF~3~,mP20,11
_chemical_formula_weight                 151.0

# Bibliographic data

_publ_section_title
;
Revised structural phase transitions in the archetype KMnF~3~ perovskite crystal
;
_journal_coden_ASTM                      PRBMDO
_journal_name_full
'Phys. Rev. B: Condens. Matter Mater. Phys.'                                  
_journal_year                            1999
_journal_volume                          59
_journal_page_first                      14235
_journal_page_last                       14245
_journal_language                        English
loop_
 _publ_author_name
 _publ_author_address
'Kapusta J.'
;
Katowice Silesian University of Technology
Institute of Physics
Katowice
Poland
;
'Daniel P.'
;
Le Mans Maine University
Laboratoire de Physique d'Etat Condens\'e
Le Mans
France
;
'Ratuszna A.'
;
Katowice Silesian University of Technology
Institute of Physics
Katowice
Poland
;

# Standardized crystallographic data

_cell_length_a                           5.9179
_cell_length_b                           8.3392
_cell_length_c                           5.8891
_cell_angle_alpha                        90
_cell_angle_beta                         90.284
_cell_angle_gamma                        90
_cell_volume                             290.63
_cell_formula_units_Z                    4
_space_group_IT_number                   11
_space_group_name_H-M_alt                'P 1 21/m 1'
loop_
 _space_group_symop_id
 _space_group_symop_operation_xyz
 1 'x, y, z'
 2 '-x, -y, -z'
 3 '-x, 1/2+y, -z'
 4 'x, 1/2-y, z'
loop_
 _atom_type_symbol
 F
 K
 Mn
loop_
 _atom_site_label
 _atom_site_type_symbol
 _atom_site_symmetry_multiplicity
 _atom_site_Wyckoff_symbol
 _atom_site_fract_x
 _atom_site_fract_y
 _atom_site_fract_z
 _atom_site_occupancy
 F4 F 4 f 0.1717 -0.0147 0.7305 1
 F3 F 4 f 0.2399 0.5091 0.2815 1
 K1 K 2 e -0.0008 0.25 0.5044 1
 F2 F 2 e 0.0781 0.25 0.0493 1
 K2 K 2 e 0.4818 0.25 0.1042 1
 F1 F 2 e 0.6235 0.25 0.4973 1
 Mn1 Mn 2 d 0.5 0 0.5 1
 Mn2 Mn 2 a 0 0 0 1


_exptl_crystal_colour                    pink
_exptl_crystal_density_meas              ?
_exptl_crystal_density_diffrn            3.45
_cell_measurement_temperature            12
_cell_measurement_radiation              'X-rays, Cu Ka'
_cell_measurement_reflns_used            ?
_diffrn_ambient_temperature              12
_diffrn_measurement_device               'automatic diffractometer'
_diffrn_measurement_device_type          'Siemens D5000'
_diffrn_radiation_type                   'X-rays, Cu Ka'
_diffrn_reflns_number                    ?
_diffrn_reflns_theta_min                 9
_diffrn_reflns_theta_max                 50
_pd_proc_2theta_range_min                18
_pd_proc_2theta_range_max                100
_exptl_absorpt_coefficient_mu            ?
_exptl_absorpt_correction_type           ?
_computing_structure_solution            'starting values from the literature'
_refine_ls_number_parameters             ?
_refine_ls_number_reflns                 ?
_refine_ls_R_factor_gt                   ?
_refine_ls_wR_factor_gt                  ?
_pd_proc_ls_proof_R_factor               ?
_pd_proc_ls_proof_wR_factor              ?
_refine_ls_R_I_factor                    0.085

# End of data set 1521459


