##############################################################################
#                                                                            #
# K-Mo-S           # KMo3S3                                        #  307993 #
#                                                                            #
##############################################################################
#                                                                            #
#                           Pearson's Crystal Data                           #
#      Crystal Structure Database for Inorganic Compounds (on DVD)           #
#                              Release 2017/18                               #
#                  Editors: Pierre Villars and Karin Cenzual                 #
#                                                                            #
#   Copyright (c) ASM International & Material Phases Data System (MPDS),    #
# Switzerland & National Institute for Materials Science (NIMS), Japan, 2017 #
#                   All rights reserved. Version 2017.08                     #
#                                                                            #
#   This copy of Pearson's Crystal Data is licensed to:                      #
#   University of Alberta, Chemistry Department, 1-5 Installations License         #
#                                                                            #
##############################################################################

data_307993
_audit_creation_date                     2017-12-01
_audit_creation_method
;
Pearson's Crystal Data browser
;
#_database_code_PCD                      307993

# Entry summary

_chemical_formula_structural             'K Mo~3~ S~3~'
_chemical_formula_sum                    'K Mo3 S3'
_chemical_name_mineral                   ?
_chemical_compound_source                ?
_chemical_name_structure_type            TlFe~3~Te~3~,hP14,176
_chemical_formula_weight                 423.1

# Bibliographic data

_publ_section_title
;
Nouveaux "clusters" dans les chalcog\'enures ternaires d\'erivant du molybd\`ene(II): Mo~9~, Mo~12~, (Mo~3~)^1^/\\infty
;
_journal_coden_ASTM                      CHDCAQ
_journal_name_full                       'C. R. Seances Acad. Sci., Ser. C'
_journal_year                            1979
_journal_volume                          288
_journal_page_first                      429
_journal_page_last                       432
_journal_language                        French
loop_
 _publ_author_name
 _publ_author_address
'Potel M.'
;
Rennes I University
Rennes
France
;
'Chevrel R.'
;
Rennes I University
Rennes
France
;
'Sergent M.'
;
Rennes I University
Rennes
France
;
'Decroux M.'
;
Grenoble
France
;
'Fischer O.'
;
Geneva University
D\'epartement de Physique de la Mati\`ere Condens\'ee
Geneva
Switzerland
;

# Standardized crystallographic data

_cell_length_a                           8.76
_cell_length_b                           8.76
_cell_length_c                           4.42
_cell_angle_alpha                        90
_cell_angle_beta                         90
_cell_angle_gamma                        120
_cell_volume                             293.7
_cell_formula_units_Z                    2
_space_group_IT_number                   176
_space_group_name_H-M_alt                'P 63/m'
loop_
 _space_group_symop_id
 _space_group_symop_operation_xyz
 1 'x, y, z'
 2 '-x+y, -x, 1/2-z'
 3 '-x+y, -x, z'
 4 '-x, -y, -z'
 5 '-x, -y, 1/2+z'
 6 '-y, x-y, 1/2-z'
 7 '-y, x-y, z'
 8 'x, y, 1/2-z'
 9 'x-y, x, -z'
 10 'x-y, x, 1/2+z'
 11 'y, -x+y, -z'
 12 'y, -x+y, 1/2+z'

# Atomic positions taken from type-defining entry

loop_
 _atom_type_symbol
 Mo
 S
 K
loop_
 _atom_site_label
 _atom_site_type_symbol
 _atom_site_symmetry_multiplicity
 _atom_site_Wyckoff_symbol
 _atom_site_fract_x
 _atom_site_fract_y
 _atom_site_fract_z
 _atom_site_occupancy
 Mo1 Mo 6 h 0.1493 0.1701 0.25 1
 S1 S 6 h 0.357 0.0462 0.25 1
 K1 K 2 c 0.333333 0.666667 0.25 1


_exptl_crystal_colour                    ?
_exptl_crystal_density_meas              ?
_exptl_crystal_density_diffrn            4.78
_cell_measurement_temperature            ?
_cell_measurement_radiation              X-rays
_cell_measurement_reflns_used            ?
_diffrn_ambient_temperature              ?
_diffrn_measurement_device               film
_diffrn_measurement_device_type          ?
_diffrn_radiation_type                   ?
_diffrn_reflns_number                    ?
_exptl_absorpt_coefficient_mu            ?
_exptl_absorpt_correction_type           ?
_computing_structure_solution            ?
_refine_ls_number_parameters             ?
_refine_ls_number_reflns                 ?
_refine_ls_R_factor_gt                   ?
_refine_ls_wR_factor_gt                  ?

# End of data set 307993


