##############################################################################
#                                                                            #
# K-Mo-O           # KMo4O8                                        # 1510345 #
#                                                                            #
##############################################################################
#                                                                            #
#                           Pearson's Crystal Data                           #
#      Crystal Structure Database for Inorganic Compounds (on DVD)           #
#                              Release 2017/18                               #
#                  Editors: Pierre Villars and Karin Cenzual                 #
#                                                                            #
#   Copyright (c) ASM International & Material Phases Data System (MPDS),    #
# Switzerland & National Institute for Materials Science (NIMS), Japan, 2017 #
#                   All rights reserved. Version 2017.08                     #
#                                                                            #
#   This copy of Pearson's Crystal Data is licensed to:                      #
#   University of Alberta, Chemistry Department, 1-5 Installations License         #
#                                                                            #
##############################################################################

data_1510345
_audit_creation_date                     2017-12-05
_audit_creation_method
;
Pearson's Crystal Data browser
;
#_database_code_PCD                      1510345

# Entry summary

_chemical_formula_structural             'K Mo~4~ O~8~'
_chemical_formula_sum                    'K Mo4 O8'
_chemical_name_mineral                   ?
_chemical_compound_source                ?
_chemical_name_structure_type            KMo~4~O~8~,mP52,13
_chemical_formula_weight                 550.9

# Bibliographic data

_publ_section_title
;
Hydrothermal synthesis of a new molybdenum hollandite containing tetranuclear metal atom clusters. X-ray crystal structure of K~2~Mo~8~O~16~
;
_journal_coden_ASTM                      INOCAJ
_journal_name_full                       'Inorg. Chem.'
_journal_year                            1984
_journal_volume                          23
_journal_page_first                      3281
_journal_page_last                       3284
_journal_language                        English
loop_
 _publ_author_name
 _publ_author_address
'Torardi C.C.'
;
Du Pont de Nemours and Co.
Central Research and Development Department
Wilmington
U.S.A. Delaware
;
'Calabrese J.C.'
;
Du Pont de Nemours and Co.
Central Research and Development Department
Wilmington
U.S.A. Delaware
;

# Standardized crystallographic data

_cell_length_a                           10.232
_cell_length_b                           5.758
_cell_length_c                           14.4907
_cell_angle_alpha                        90
_cell_angle_beta                         134.779
_cell_angle_gamma                        90
_cell_volume                             606
_cell_formula_units_Z                    4
_space_group_IT_number                   13
_space_group_name_H-M_alt                'P 1 2/c 1'
loop_
 _space_group_symop_id
 _space_group_symop_operation_xyz
 1 'x, y, z'
 2 '-x, -y, -z'
 3 '-x, y, 1/2-z'
 4 'x, -y, 1/2+z'
loop_
 _atom_type_symbol
 O
 Mo
 K
loop_
 _atom_site_label
 _atom_site_type_symbol
 _atom_site_symmetry_multiplicity
 _atom_site_Wyckoff_symbol
 _atom_site_fract_x
 _atom_site_fract_y
 _atom_site_fract_z
 _atom_site_occupancy
 O1 O 4 g 0.037 0.1217 0.4205 1
 O2 O 4 g 0.0406 0.617 0.4465 1
 Mo2 Mo 4 g 0.1552 0.0985 0.0727 1
 Mo1 Mo 4 g 0.1814 0.6545 0.0793 1
 O4 O 4 g 0.2921 0.3794 0.2104 1
 O5 O 4 g 0.3009 0.1133 0.3817 1
 O3 O 4 g 0.302 0.1246 0.7202 1
 O6 O 4 g 0.3464 0.6161 0.4036 1
 O7 O 4 g 0.3638 0.1157 0.0827 1
 O8 O 4 g 0.37 0.6155 0.0822 1
 Mo4 Mo 4 g 0.5105 0.1144 0.5804 1
 Mo3 Mo 4 g 0.5227 0.3351 0.0994 1
 K2 K 2 e 0 0.371 0.25 1
 K1 K 2 e 0 0.8563 0.25 1


_exptl_crystal_colour                    black
_exptl_crystal_density_meas              ?
_exptl_crystal_density_diffrn            6.04
_cell_measurement_temperature            ?
_cell_measurement_radiation              'X-rays, Mo Ka'
_cell_measurement_reflns_used            25
_diffrn_ambient_temperature              295
_diffrn_measurement_device               'automatic diffractometer'
_diffrn_measurement_device_type          'Enraf-Nonius CAD4'
_diffrn_radiation_type                   'X-rays, Mo Ka'
_diffrn_reflns_number                    1651
_diffrn_reflns_theta_min                 2
_diffrn_reflns_theta_max                 27.5
_exptl_absorpt_coefficient_mu            8.60
_exptl_absorpt_correction_type           no
_computing_structure_solution            'Patterson and Fourier synthesis'
_refine_ls_number_parameters             ?
_refine_ls_number_reflns                 1194
_refine_ls_R_factor_gt                   0.057
_refine_ls_wR_factor_gt                  0.060

# End of data set 1510345


