##############################################################################
#                                                                            #
# F-H-K-Na-O-Ti    # KNaTi[O2]F4[H2O]                              #  304051 #
#                                                                            #
##############################################################################
#                                                                            #
#                           Pearson's Crystal Data                           #
#      Crystal Structure Database for Inorganic Compounds (on DVD)           #
#                              Release 2017/18                               #
#                  Editors: Pierre Villars and Karin Cenzual                 #
#                                                                            #
#   Copyright (c) ASM International & Material Phases Data System (MPDS),    #
# Switzerland & National Institute for Materials Science (NIMS), Japan, 2017 #
#                   All rights reserved. Version 2017.08                     #
#                                                                            #
#   This copy of Pearson's Crystal Data is licensed to:                      #
#   University of Alberta, Chemistry Department, 1-5 Installations License         #
#                                                                            #
##############################################################################

data_304051
_audit_creation_date                     2017-12-01
_audit_creation_method
;
Pearson's Crystal Data browser
;
#_database_code_PCD                      304051

# Entry summary

_chemical_formula_structural             'K Na Ti [O~2~] F~4~ [H~2~ O]'
_chemical_formula_sum                    'F4 H2 K Na O3 Ti'
_chemical_name_mineral                   ?
_chemical_compound_source                ?
_chemical_name_structure_type            KNaTi[O~2~]F~4~[H~2~O],mP40,14
_chemical_formula_weight                 236.0

# Bibliographic data

_publ_section_title
;
Crystal structure of potassium sodium peroxofluorotitanate (K,Na)~2~Ti~2~F~8~(O~2~)~2~H~2~O
;
_journal_coden_ASTM                      RJICAQ
_journal_name_full                       'Russ. J. Inorg. Chem.'
_journal_year                            1995
_journal_volume                          40
_journal_page_first                      1045
_journal_page_last                       1048
_journal_language                        English
loop_
 _publ_author_name
 _publ_author_address
'Bukvetskii B.V.'
;
Russian Academy of Sciences
Institute of Chemistry
Vladivostok
Russia
;
'Chernyshov B.N.'
;
Russian Academy of Sciences
Institute of Chemistry
Vladivostok
Russia
;
'Didenko N.A.'
;
Russian Academy of Sciences
Institute of Chemistry
Vladivostok
Russia
;
'Bakeeva N.G.'
;
Russian Academy of Sciences
Institute of Chemistry
Vladivostok
Russia
;

# Standardized crystallographic data

_cell_length_a                           10.072
_cell_length_b                           5.611
_cell_length_c                           10.415
_cell_angle_alpha                        90
_cell_angle_beta                         104.34
_cell_angle_gamma                        90
_cell_volume                             570.3
_cell_formula_units_Z                    4
_space_group_IT_number                   14
_space_group_name_H-M_alt                'P 1 21/c 1'
loop_
 _space_group_symop_id
 _space_group_symop_operation_xyz
 1 'x, y, z'
 2 '-x, -y, -z'
 3 '-x, 1/2+y, 1/2-z'
 4 'x, 1/2-y, 1/2+z'
loop_
 _atom_type_symbol
 F
 Na
 Ti
 O
 K
 H
loop_
 _atom_site_label
 _atom_site_type_symbol
 _atom_site_symmetry_multiplicity
 _atom_site_Wyckoff_symbol
 _atom_site_fract_x
 _atom_site_fract_y
 _atom_site_fract_z
 _atom_site_occupancy
 F(1) F 4 e 0.0204 0.6686 0.4308 1
 Na Na 4 e 0.0552 0.513 0.2066 1
 F(4) F 4 e 0.1235 0.2536 0.39 1
 F(3) F 4 e 0.1678 0.8643 0.19 1
 Ti Ti 4 e 0.1707 0.0481 0.0397 1
 F(2) F 4 e 0.2302 0.3244 0.153 1
 O(2) O 4 e 0.357 0.0374 0.0482 1
 K K 4 e 0.3706 0.0624 0.3761 1
 O(3) O 4 e 0.5386 0.0964 0.29 1
 O(1) O 4 e 0.7209 0.1512 0.0329 1
 H(2) H 4 e 0.488 0.146 0.242 1
 H(1) H 4 e 0.6 0.081 0.272 1


_exptl_crystal_colour                    orange
_exptl_crystal_density_meas              ?
_exptl_crystal_density_diffrn            2.75
_cell_measurement_temperature            ?
_cell_measurement_radiation              'X-rays, Mo Ka'
_cell_measurement_reflns_used            ?
_diffrn_ambient_temperature              ?
_diffrn_measurement_device               'automatic diffractometer'
_diffrn_measurement_device_type          ?
_diffrn_radiation_type                   'X-rays, Mo Ka'
_diffrn_reflns_number                    ?
_exptl_absorpt_coefficient_mu            1.85
_exptl_absorpt_correction_type           yes
_computing_structure_solution            'Patterson and Fourier synthesis'
_refine_ls_number_parameters             ?
_refine_ls_number_reflns                 1256
_refine_ls_R_factor_gt                   0.039
_refine_ls_wR_factor_gt                  ?

# End of data set 304051


