##############################################################################
#                                                                            #
# K-Nd-O-P         # KNdP4O12 mon2                                 # 1522529 #
#                                                                            #
##############################################################################
#                                                                            #
#                           Pearson's Crystal Data                           #
#      Crystal Structure Database for Inorganic Compounds (on DVD)           #
#                              Release 2017/18                               #
#                  Editors: Pierre Villars and Karin Cenzual                 #
#                                                                            #
#   Copyright (c) ASM International & Material Phases Data System (MPDS),    #
# Switzerland & National Institute for Materials Science (NIMS), Japan, 2017 #
#                   All rights reserved. Version 2017.08                     #
#                                                                            #
#   This copy of Pearson's Crystal Data is licensed to:                      #
#   University of Alberta, Chemistry Department, 1-5 Installations License         #
#                                                                            #
##############################################################################

data_1522529
_audit_creation_date                     2017-12-05
_audit_creation_method
;
Pearson's Crystal Data browser
;
#_database_code_PCD                      1522529

# Entry summary

_chemical_formula_structural             'K Nd P~4~ O~12~'
_chemical_formula_sum                    'K Nd O12 P4'
_chemical_name_mineral                   ?
_chemical_compound_source                ?
_chemical_name_structure_type            KNdP~4~O~12~,mP36,4
_chemical_formula_weight                 499.2

# Bibliographic data

_publ_section_title
;
Crystal structure and optical characterization of pure and Nd-substituted type III KGd(PO~3~)~4~
;
_journal_coden_ASTM                      CMATEX
_journal_name_full                       'Chem. Mater.'
_journal_year                            2006
_journal_volume                          18
_journal_page_first                      221
_journal_page_last                       228
_journal_language                        English
loop_
 _publ_author_name
 _publ_author_address
'Parreu I.'
;
Tarragona Rovira i Virgili University
Laboratorio de Fisica i Cristallografia de Materials (FiCMA)
Tarragona
Spain
;
'Carvajal J.J.'
;
Tarragona Rovira i Virgili University
Laboratorio de Fisica i Cristallografia de Materials (FiCMA)
Tarragona
Spain
;
'Solans X.'
;
Barcelona University
Departamento de Cristallografia, Mineralogia i Diposits Minerals
Barcelona
Spain
;
'Diaz F.'
;
Tarragona Rovira i Virgili University
Laboratorio de Fisica i Cristallografia de Materials (FiCMA)
Tarragona
Spain
;
'Aguilo M.'
;
Tarragona Rovira i Virgili University
Laboratorio de Fisica i Cristallografia de Materials (FiCMA)
Tarragona
Spain
;

# Standardized crystallographic data

_cell_length_a                           7.286
_cell_length_b                           8.442
_cell_length_c                           8.034
_cell_angle_alpha                        90
_cell_angle_beta                         92.17
_cell_angle_gamma                        90
_cell_volume                             493.8
_cell_formula_units_Z                    2
_space_group_IT_number                   4
_space_group_name_H-M_alt                'P 1 21 1'
loop_
 _space_group_symop_id
 _space_group_symop_operation_xyz
 1 'x, y, z'
 2 '-x, 1/2+y, -z'
loop_
 _atom_type_symbol
 P
 O
 K
 Nd
loop_
 _atom_site_label
 _atom_site_type_symbol
 _atom_site_symmetry_multiplicity
 _atom_site_Wyckoff_symbol
 _atom_site_fract_x
 _atom_site_fract_y
 _atom_site_fract_z
 _atom_site_occupancy
 P4 P 2 a 0.0006 0.1059 0.1196 1
 O3 O 2 a 0.0105 0.0 0.2845 1
 O7 O 2 a 0.0266 0.0 0.9714 1
 O11 O 2 a 0.0365 0.4097 0.432 1
 O1 O 2 a 0.0847 0.2171 0.6734 1
 P1 P 2 a 0.1031 0.3768 0.6037 1
 O8 O 2 a 0.1687 0.2191 0.1552 1
 K K 2 a 0.2732 0.6529 0.2192 1
 O2 O 2 a 0.3119 0.4264 0.6239 1
 P3 P 2 a 0.378 0.2107 0.1041 1
 O6 O 2 a 0.4313 0.0545 0.5334 1
 O9 O 2 a 0.4608 0.0728 0.2263 1
 O10 O 2 a 0.4623 0.3631 0.1552 1
 P2 P 2 a 0.5658 0.0792 0.4021 1
 O12 O 2 a 0.6142 0.6514 0.0723 1
 O5 O 2 a 0.683 0.2235 0.4297 1
 Nd Nd 2 a 0.7651 0.4572 0.2578 1
 O4 O 2 a 0.8294 0.2044 0.1153 1


_exptl_crystal_colour                    purple
_exptl_crystal_density_meas              ?
_exptl_crystal_density_diffrn            3.36
_cell_measurement_temperature            293
_cell_measurement_radiation              'X-rays, Mo Ka'
_cell_measurement_wavelength             0.71069
_cell_measurement_reflns_used            25
_diffrn_ambient_temperature              293
_diffrn_measurement_device               'automatic diffractometer'
_diffrn_measurement_device_type          'Enraf-Nonius CAD4'
_diffrn_radiation_type                   'X-rays, Mo Ka'
_diffrn_radiation_wavelength             0.71069
_diffrn_reflns_number                    1617
_exptl_absorpt_coefficient_mu            6.391
_exptl_absorpt_correction_type           ?
_computing_structure_solution            'Patterson synthesis'
_refine_ls_number_parameters             162
_refine_ls_number_reflns                 1525
_refine_ls_R_factor_gt                   0.0386
_refine_ls_wR_factor_gt                  0.1002

# End of data set 1522529


