##############################################################################
#                                                                            #
# K-Nd-O-W         # KNdW2O8 mon                                   #  550522 #
#                                                                            #
##############################################################################
#                                                                            #
#                           Pearson's Crystal Data                           #
#      Crystal Structure Database for Inorganic Compounds (on DVD)           #
#                              Release 2017/18                               #
#                  Editors: Pierre Villars and Karin Cenzual                 #
#                                                                            #
#   Copyright (c) ASM International & Material Phases Data System (MPDS),    #
# Switzerland & National Institute for Materials Science (NIMS), Japan, 2017 #
#                   All rights reserved. Version 2017.08                     #
#                                                                            #
#   This copy of Pearson's Crystal Data is licensed to:                      #
#   University of Alberta, Chemistry Department, 1-5 Installations License         #
#                                                                            #
##############################################################################

data_550522
_audit_creation_date                     2017-12-04
_audit_creation_method
;
Pearson's Crystal Data browser
;
#_database_code_PCD                      550522

# Entry summary

_chemical_formula_structural             'K~0.58~ Nd~1.14~ W~2~ O~8~'
_chemical_formula_sum                    'K0.58 Nd1.14 O8 W2'
_chemical_name_mineral                   ?
_chemical_compound_source                ?
_chemical_name_structure_type            KNdW~2~O~8~,mS48,12
_chemical_formula_weight                 682.8

# Bibliographic data

_publ_section_title
;
Hydrothermal synthesis of crystals of variable composition K~1-3x~Ln~1+x~(WO~4~)~2~ (Ln= La, Ce, Pr, Nd), and their crystallochemical nature
;
_journal_coden_ASTM                      INOMAF
_journal_name_full                       'Inorg. Mater.'
_journal_year                            1970
_journal_volume                          6
_journal_page_first                      1280
_journal_page_last                       1283
_journal_language                        English
loop_
 _publ_author_name
 _publ_author_address
'Klevtsov P.V.'
;
Russian Academy of Sciences
Nikolaev A.V. Institute of Inorganic Chemistry
Novosibirsk
Russia
;
'Kharchenko L.Y.'
;
Russian Academy of Sciences
Institute of Inorganic Chemistry
Moscow
Russia
;

# Standardized crystallographic data

_cell_length_a                           10.07
_cell_length_b                           10.82
_cell_length_c                           7.6
_cell_angle_alpha                        90
_cell_angle_beta                         127.
_cell_angle_gamma                        90
_cell_volume                             661.3
_cell_formula_units_Z                    4
_space_group_IT_number                   12
_space_group_name_H-M_alt                'C 1 2/m 1'
loop_
 _space_group_symop_id
 _space_group_symop_operation_xyz
 1 'x, y, z'
 2 '-x, -y, -z'
 3 '-x, y, -z'
 4 'x, -y, z'
 5 '1/2+x, 1/2+y, z'
 6 '1/2-x, 1/2-y, -z'
 7 '1/2-x, 1/2+y, -z'
 8 '1/2+x, 1/2-y, z'

# Atomic positions taken from type-defining entry

loop_
 _atom_type_symbol
 O
 K
 W
 Nd
loop_
 _atom_site_label
 _atom_site_type_symbol
 _atom_site_symmetry_multiplicity
 _atom_site_Wyckoff_symbol
 _atom_site_fract_x
 _atom_site_fract_y
 _atom_site_fract_z
 _atom_site_occupancy
 O1 O 8 j 0.047 0.258 0.357 1
 O2 O 8 j 0.168 0.122 0.063 1
 O3 O 8 j 0.28 0.377 0.263 1
 O4 O 4 i 0.012 0 0.341 1
 K1 K 4 i 0.311 0 0.473 1
 O5 O 4 i 0.425 0 0.112 1
 W1 W 4 i 0.7991 0 0.0552 1
 W2 W 4 h 0 0.1642 0.5 1
 Nd1 Nd 4 g 0 0.3048 0 1


_exptl_crystal_colour                    ?
_exptl_crystal_density_meas              ?
_exptl_crystal_density_diffrn            6.86
_cell_measurement_temperature            ?
_cell_measurement_radiation              'X-rays, Cu Ka'
_cell_measurement_reflns_used            ?
_diffrn_ambient_temperature              ?
_diffrn_measurement_device               film
_diffrn_measurement_device_type          ?
_diffrn_radiation_type                   ?
_diffrn_reflns_number                    ?
_exptl_absorpt_coefficient_mu            ?
_exptl_absorpt_correction_type           ?
_computing_structure_solution            ?
_refine_ls_number_parameters             ?
_refine_ls_number_reflns                 ?
_refine_ls_R_factor_gt                   ?
_refine_ls_wR_factor_gt                  ?

# Published diffraction lines

loop_
 _refln_index_h
 _refln_index_k
 _refln_index_l
 _refln_d_spacing
 _refln_intensity_meas
 1 1 0 65.1 11
 1 1 -1 60.4 20
 2 0 -1 49.7 16
 2 0 0 40.3 20
 2 0 -2 36.57 22
 1 3 -1 32.38 100
 3 1 -1 31.45 30
 0 0 2 30.23 70
 0 4 0 27.05 7
 1 3 1 26.35 35
 1 3 -2 25.38 5
 0 4 1 24.79 17
 3 3 -1 24.28 10
 3 3 -2 23.74 5
 1 1 2 23.44 3
 2 2 -3 22.38 10
 2 4 -2 21.74 20
 1 5 -1 20.75 7
 4 0 0 20.18 42
 5 1 -2 19.63 2
 2 0 2 19.3 5
 1 5 1 18.92 3
 1 5 -2 18.45 2
 4 0 -4 18.19 12
 3 5 -1 18.08 25
 4 4 -1 17.89 10
 0 6 1 17.15 12
 2 2 -4 17.03 23
 5 3 -1 16.53 23
 3 5 -3 16.16 3
 6 2 -3 16 5
 6 2 -2 15.71 5
 6 0 -4 15.55 13
 0 6 2 15.51 3
 1 3 -4 15.19 3
 0 0 4 15.12 3
 6 2 -4 14.99 5

# End of data set 550522


