##############################################################################
#                                                                            #
# F-K-O-Re         # KRe2O4F7                                      # 1510483 #
#                                                                            #
##############################################################################
#                                                                            #
#                           Pearson's Crystal Data                           #
#      Crystal Structure Database for Inorganic Compounds (on DVD)           #
#                              Release 2017/18                               #
#                  Editors: Pierre Villars and Karin Cenzual                 #
#                                                                            #
#   Copyright (c) ASM International & Material Phases Data System (MPDS),    #
# Switzerland & National Institute for Materials Science (NIMS), Japan, 2017 #
#                   All rights reserved. Version 2017.08                     #
#                                                                            #
#   This copy of Pearson's Crystal Data is licensed to:                      #
#   University of Alberta, Chemistry Department, 1-5 Installations License         #
#                                                                            #
##############################################################################

data_1510483
_audit_creation_date                     2017-12-05
_audit_creation_method
;
Pearson's Crystal Data browser
;
#_database_code_PCD                      1510483

# Entry summary

_chemical_formula_structural             'K Re~2~ O~4~ F~7~'
_chemical_formula_sum                    'F7 K O4 Re2'
_chemical_name_mineral                   ?
_chemical_compound_source                ?
_chemical_name_structure_type            KRe~2~O~4~F~7~,mP28,13
_chemical_formula_weight                 608.5

# Bibliographic data

_publ_section_title
;
Lewis acid behavior of ReO~2~F~3~: Synthesis of [ReO~2~F~3~]\\infty, ReO~2~F~4~^-^, Re~2~O~4~F~7~^-^, Re~3~O~6~F~10~^-^, and ReO~2~F~3~(CH~3~CN) and study by NMR spectroscopy, Raman spectroscopy, and density functional theory calculations; and X-ray structures of (Li)[ReO~2~F~4~] ^3^
;
_journal_coden_ASTM                      INOCAJ
_journal_name_full                       'Inorg. Chem.'
_journal_year                            1999
_journal_volume                          38
_journal_page_first                      2340
_journal_page_last                       2358
_journal_language                        English
loop_
 _publ_author_name
 _publ_author_address
'Casteel W.J. Jr.'
;
Hamilton McMaster University
Department of Chemistry
Hamilton
Canada
;
'Dixon D.A.'
;
Pacific Northwest National Laboratory
Richland
U.S.A. Washington D.C.
;
'Le Blond N.'
;
Hamilton McMaster University
Department of Chemistry
Hamilton
Canada
;
'Lock P.E.'
;
Hamilton McMaster University
Department of Chemistry
Hamilton
Canada
;
'Mercier H.P.A.'
;
Hamilton McMaster University
Department of Chemistry
Hamilton
Canada
;
'Schrobilgen G.J.'
;
Hamilton McMaster University
Department of Chemistry
Hamilton
Canada
;

# Standardized crystallographic data

_cell_length_a                           5.499
_cell_length_b                           5.153
_cell_length_c                           15.226
_cell_angle_alpha                        90
_cell_angle_beta                         105.382
_cell_angle_gamma                        90
_cell_volume                             416
_cell_formula_units_Z                    2
_space_group_IT_number                   13
_space_group_name_H-M_alt                'P 1 2/c 1'
loop_
 _space_group_symop_id
 _space_group_symop_operation_xyz
 1 'x, y, z'
 2 '-x, -y, -z'
 3 '-x, y, 1/2-z'
 4 'x, -y, 1/2+z'
loop_
 _atom_type_symbol
 F
 O
 Re
 K
loop_
 _atom_site_label
 _atom_site_type_symbol
 _atom_site_symmetry_multiplicity
 _atom_site_Wyckoff_symbol
 _atom_site_fract_x
 _atom_site_fract_y
 _atom_site_fract_z
 _atom_site_occupancy
 F2 F 4 g 0.1159 0.116 0.1658 1
 F4 F 4 g 0.1844 0.5456 0.104 1
 O1 O 4 g 0.2482 0.1303 0.0072 1
 Re1 Re 4 g 0.36889 0.2384 0.11275 1
 O2 O 4 g 0.3714 0.4141 0.4016 1
 F3 F 4 g 0.5486 0.0389 0.6619 1
 F1 F 2 f 0.5 0.3832 0.25 1
 K1 K 2 e 0 0.6776 0.25 1


_exptl_crystal_colour                    'yellow pale'
_exptl_crystal_density_meas              ?
_exptl_crystal_density_diffrn            4.86
_cell_measurement_temperature            293(2)
_cell_measurement_radiation              'X-rays, Ag Ka'
_cell_measurement_wavelength             0.56086
_cell_measurement_reflns_used            ?
_diffrn_ambient_temperature              293(2)
_diffrn_measurement_device               'automatic diffractometer'
_diffrn_measurement_device_type          'Nicolet-Siemens P21'
_diffrn_radiation_type                   'X-rays, Ag Ka'
_diffrn_radiation_wavelength             0.56086
_diffrn_reflns_number                    1671
_exptl_absorpt_coefficient_mu            15.961
_exptl_absorpt_correction_type           ?
_computing_structure_solution            'direct methods, Fourier synthesis'
_refine_ls_number_parameters             ?
_refine_ls_number_reflns                 631
_refine_ls_R_factor_gt                   0.0473
_refine_ls_wR_factor_gt                  ?

# End of data set 1510483


