##############################################################################
#                                                                            #
# F-K-O-Re         # KRe4O8F13                                     # 1510484 #
#                                                                            #
##############################################################################
#                                                                            #
#                           Pearson's Crystal Data                           #
#      Crystal Structure Database for Inorganic Compounds (on DVD)           #
#                              Release 2017/18                               #
#                  Editors: Pierre Villars and Karin Cenzual                 #
#                                                                            #
#   Copyright (c) ASM International & Material Phases Data System (MPDS),    #
# Switzerland & National Institute for Materials Science (NIMS), Japan, 2017 #
#                   All rights reserved. Version 2017.08                     #
#                                                                            #
#   This copy of Pearson's Crystal Data is licensed to:                      #
#   University of Alberta, Chemistry Department, 1-5 Installations License         #
#                                                                            #
##############################################################################

data_1510484
_audit_creation_date                     2017-12-05
_audit_creation_method
;
Pearson's Crystal Data browser
;
#_database_code_PCD                      1510484

# Entry summary

_chemical_formula_structural             'K Re~4~ O~8~ F~13~'
_chemical_formula_sum                    'F13 K O8 Re4'
_chemical_name_mineral                   ?
_chemical_compound_source                ?
_chemical_name_structure_type            KRe~4~O~8~F~13~,mS52,5
_chemical_formula_weight                 1158.9

# Bibliographic data

_publ_section_title
;
Lewis acid behavior of ReO~2~F~3~: Synthesis of [ReO~2~F~3~]\\infty, ReO~2~F~4~^-^, Re~2~O~4~F~7~^-^, Re~3~O~6~F~10~^-^, and ReO~2~F~3~(CH~3~CN) and study by NMR spectroscopy, Raman spectroscopy, and density functional theory calculations; and X-ray structures of (Li)[ReO~2~F~4~] ^3^
;
_journal_coden_ASTM                      INOCAJ
_journal_name_full                       'Inorg. Chem.'
_journal_year                            1999
_journal_volume                          38
_journal_page_first                      2340
_journal_page_last                       2358
_journal_language                        English
loop_
 _publ_author_name
 _publ_author_address
'Casteel W.J. Jr.'
;
Hamilton McMaster University
Department of Chemistry
Hamilton
Canada
;
'Dixon D.A.'
;
Pacific Northwest National Laboratory
Richland
U.S.A. Washington D.C.
;
'Le Blond N.'
;
Hamilton McMaster University
Department of Chemistry
Hamilton
Canada
;
'Lock P.E.'
;
Hamilton McMaster University
Department of Chemistry
Hamilton
Canada
;
'Mercier H.P.A.'
;
Hamilton McMaster University
Department of Chemistry
Hamilton
Canada
;
'Schrobilgen G.J.'
;
Hamilton McMaster University
Department of Chemistry
Hamilton
Canada
;

# Standardized crystallographic data

_cell_length_a                           27.32
_cell_length_b                           5.274
_cell_length_c                           5.355
_cell_angle_alpha                        90
_cell_angle_beta                         99.53
_cell_angle_gamma                        90
_cell_volume                             760.9
_cell_formula_units_Z                    2
_space_group_IT_number                   5
_space_group_name_H-M_alt                'C 1 2 1'
loop_
 _space_group_symop_id
 _space_group_symop_operation_xyz
 1 'x, y, z'
 2 '-x, y, -z'
 3 '1/2+x, 1/2+y, z'
 4 '1/2-x, 1/2+y, -z'
loop_
 _atom_type_symbol
 F
 Re
 O
 K
loop_
 _atom_site_label
 _atom_site_type_symbol
 _atom_site_symmetry_multiplicity
 _atom_site_Wyckoff_symbol
 _atom_site_fract_x
 _atom_site_fract_y
 _atom_site_fract_z
 _atom_site_occupancy
 F2 F 4 c 0.048 0.2637 0.3592 1
 F3 F 4 c 0.052 0.4006 0.9091 1
 Re1 Re 4 c 0.07557 0.12884 0.08797 1
 O1 O 4 c 0.1348 0.218 0.1754 1
 F5 F 4 c 0.2399 0.393 0.502 1
 F6 F 4 c 0.2519 0.1645 0.1009 1
 Re2 Re 4 c 0.2993 0.2069 0.3825 1
 O3 O 4 c 0.3207 0.4885 0.309 1
 O4 O 4 c 0.3423 0.0078 0.3068 1
 O2 O 4 c 0.4185 0.4389 0.1769 1
 F4 F 4 c 0.578 0.3334 0.2863 1
 F7 F 4 c 0.6791 0.2146 0.2705 1
 K1 K 2 b 0 0.6794 0.5 1
 F1 F 2 a 0 0.0 0 1


_exptl_crystal_colour                    colorless
_exptl_crystal_density_meas              ?
_exptl_crystal_density_diffrn            5.06
_cell_measurement_temperature            213(2)
_cell_measurement_radiation              'X-rays, Mo Ka'
_cell_measurement_wavelength             0.71073
_cell_measurement_reflns_used            ?
_diffrn_ambient_temperature              213(2)
_diffrn_measurement_device               'automatic diffractometer'
_diffrn_measurement_device_type          'Siemens SMART'
_diffrn_radiation_type                   'X-rays, Mo Ka'
_diffrn_radiation_wavelength             0.71073
_diffrn_reflns_number                    4192
_exptl_absorpt_coefficient_mu            32.17
_exptl_absorpt_correction_type           ?
_computing_structure_solution            'direct methods, Fourier synthesis'
_refine_ls_number_parameters             121
_refine_ls_number_reflns                 1718
_refine_ls_R_factor_gt                   0.0244
_refine_ls_wR_factor_gt                  ?

# End of data set 1510484


