##############################################################################
#                                                                            #
# K-Sb             # KSb                                           #  534642 #
#                                                                            #
##############################################################################
#                                                                            #
#                           Pearson's Crystal Data                           #
#      Crystal Structure Database for Inorganic Compounds (on DVD)           #
#                              Release 2017/18                               #
#                  Editors: Pierre Villars and Karin Cenzual                 #
#                                                                            #
#   Copyright (c) ASM International & Material Phases Data System (MPDS),    #
# Switzerland & National Institute for Materials Science (NIMS), Japan, 2017 #
#                   All rights reserved. Version 2017.08                     #
#                                                                            #
#   This copy of Pearson's Crystal Data is licensed to:                      #
#   University of Alberta, Chemistry Department, 1-5 Installations License         #
#                                                                            #
##############################################################################

data_534642
_audit_creation_date                     2017-12-04
_audit_creation_method
;
Pearson's Crystal Data browser
;
#_database_code_PCD                      534642

# Entry summary

_chemical_formula_structural             'K Sb'
_chemical_formula_sum                    'K Sb'
_chemical_name_mineral                   ?
_chemical_compound_source                ?
_chemical_name_structure_type            LiAs,mP16,14
_chemical_formula_weight                 160.8
_chemical_melting_point                  883

# Bibliographic data

_publ_section_title                      'Zur Struktur von LiP und KSb'
_journal_coden_ASTM                      ZEKRDZ
_journal_name_full                       'Z. Kristallogr.'
_journal_year                            1981
_journal_volume                          155
_journal_page_first                      307
_journal_page_last                       314
_journal_language                        German
loop_
 _publ_author_name
 _publ_author_address
'H\"onle W.'
;
Max Planck Society
Max Planck Institut f\"ur Festk\"orperforschung
Stuttgart
Germany
;
'Von Schnering H.G.'
;
Max Planck Society
Max Planck Institut f\"ur Festk\"orperforschung
Stuttgart
Germany
;

# Standardized crystallographic data

_cell_length_a                           7.156
_cell_length_b                           6.917
_cell_length_c                           13.355
_cell_angle_alpha                        90
_cell_angle_beta                         115.17
_cell_angle_gamma                        90
_cell_volume                             598.28
_cell_formula_units_Z                    8
_space_group_IT_number                   14
_space_group_name_H-M_alt                'P 1 21/c 1'
loop_
 _space_group_symop_id
 _space_group_symop_operation_xyz
 1 'x, y, z'
 2 '-x, -y, -z'
 3 '-x, 1/2+y, 1/2-z'
 4 'x, 1/2-y, 1/2+z'
loop_
 _atom_type_symbol
 Sb
 K
loop_
 _atom_site_label
 _atom_site_type_symbol
 _atom_site_symmetry_multiplicity
 _atom_site_Wyckoff_symbol
 _atom_site_fract_x
 _atom_site_fract_y
 _atom_site_fract_z
 _atom_site_occupancy
 Sb(1) Sb 4 e 0.17778 0.60094 0.21355 1
 Sb(2) Sb 4 e 0.18091 0.3338 0.37688 1
 K(1) K 4 e 0.2811 0.101 0.1682 1
 K(2) K 4 e 0.7395 0.3332 0.0317 1


_exptl_crystal_colour                    black
_exptl_crystal_density_meas              ?
_exptl_crystal_density_diffrn            3.57
_cell_measurement_temperature            ?
_cell_measurement_radiation              'X-rays, Cu Ka1'
_cell_measurement_wavelength             1.54056
_pd_proc_wavelength                      1.54056
_cell_measurement_reflns_used            22
_diffrn_ambient_temperature              ?
_diffrn_measurement_device               'automatic diffractometer'
_diffrn_measurement_device_type          'Syntex P21'
_diffrn_radiation_type                   ?
_diffrn_reflns_number                    ?
_diffrn_reflns_theta_min                 1.5
_diffrn_reflns_theta_max                 27.5
_exptl_absorpt_coefficient_mu            ?
_exptl_absorpt_correction_type           empirical
_computing_structure_solution            'starting values from the literature'
_refine_ls_number_parameters             ?
_refine_ls_number_reflns                 1115
_refine_ls_R_factor_gt                   0.048
_refine_ls_wR_factor_gt                  ?

# Published diffraction lines

loop_
 _refln_index_h
 _refln_index_k
 _refln_index_l
 _refln_d_spacing
 _refln_intensity_meas
 1 0 0 6477 80
 0 0 2 6044 61
 1 0 -2 5823 54
 1 1 -1 4956 68
 0 1 2 4551 79
 1 1 -2 4455 43
 1 1 1 4002 53
 1 0 -4 3335 68
 0 2 1 3325 ?
 2 0 0 3238 87
 2 1 -1 3141 49
 1 2 -1 3110 52
 1 1 -4 3004 100
 1 2 1 2827 55
 2 1 1 2628 83
 0 2 3 2624 ?
 1 2 2 2527 16
 2 2 -1 2469 19
 2 2 -3 2388 70
 2 1 2 2312 17
 0 1 5 2282 19
 3 1 -2 2249 39
 1 2 3 2227 48
 3 0 0 2159 37
 3 1 -5 2026 17
 3 1 -7 1708 16
 2 1 -8 1621 16

# End of data set 534642


