##############################################################################
#                                                                            #
# K-O-Sm-W         # KSmW2O8 ht-hp                                 #  546017 #
#                                                                            #
##############################################################################
#                                                                            #
#                           Pearson's Crystal Data                           #
#      Crystal Structure Database for Inorganic Compounds (on DVD)           #
#                              Release 2017/18                               #
#                  Editors: Pierre Villars and Karin Cenzual                 #
#                                                                            #
#   Copyright (c) ASM International & Material Phases Data System (MPDS),    #
# Switzerland & National Institute for Materials Science (NIMS), Japan, 2017 #
#                   All rights reserved. Version 2017.08                     #
#                                                                            #
#   This copy of Pearson's Crystal Data is licensed to:                      #
#   University of Alberta, Chemistry Department, 1-5 Installations License         #
#                                                                            #
##############################################################################

data_546017
_audit_creation_date                     2017-12-04
_audit_creation_method
;
Pearson's Crystal Data browser
;
#_database_code_PCD                      546017

# Entry summary

_chemical_formula_structural             'K Sm W~2~ O~8~'
_chemical_formula_sum                    'K O8 Sm W2'
_chemical_name_mineral                   ?
_chemical_compound_source                ?
_chemical_name_structure_type            KNdW~2~O~8~,mS48,12
_chemical_formula_weight                 685.2

# Bibliographic data

_publ_section_title
'Double Tungstates of Potassium and the Rare Earth Elements'                  
_journal_coden_ASTM                      RJICAQ
_journal_name_full                       'Russ. J. Inorg. Chem.'
_journal_year                            1977
_journal_volume                          22
_journal_page_first                      554
_journal_page_last                       556
_journal_language                        English
loop_
 _publ_author_name
 _publ_author_address
'Sokolovskii B.M.'
;
Russian Academy of Sciences
All-Union Research Institute of Reagents and Especially Pure Substances
Moscow
Russia
;
'Evdokimov A.A.'
;
Russian Academy of Sciences
All-Union Research Institute of Reagents and Especially Pure Substances
Moscow
Russia
;
'Trunov V.K.'
;
Russian Academy of Sciences
Moscow Institute of Radiotechnology, Electronics and Automation
Moscow
Russia
;

# Standardized crystallographic data

_cell_length_a                           10.12
_cell_length_b                           10.77
_cell_length_c                           7.4703
_cell_angle_alpha                        90
_cell_angle_beta                         125.817
_cell_angle_gamma                        90
_cell_volume                             660.2
_cell_formula_units_Z                    4
_space_group_IT_number                   12
_space_group_name_H-M_alt                'C 1 2/m 1'
loop_
 _space_group_symop_id
 _space_group_symop_operation_xyz
 1 'x, y, z'
 2 '-x, -y, -z'
 3 '-x, y, -z'
 4 'x, -y, z'
 5 '1/2+x, 1/2+y, z'
 6 '1/2-x, 1/2-y, -z'
 7 '1/2-x, 1/2+y, -z'
 8 '1/2+x, 1/2-y, z'

# Atomic positions taken from type-defining entry

loop_
 _atom_type_symbol
 O
 K
 W
 Sm
loop_
 _atom_site_label
 _atom_site_type_symbol
 _atom_site_symmetry_multiplicity
 _atom_site_Wyckoff_symbol
 _atom_site_fract_x
 _atom_site_fract_y
 _atom_site_fract_z
 _atom_site_occupancy
 O1 O 8 j 0.047 0.258 0.357 1
 O2 O 8 j 0.168 0.122 0.063 1
 O3 O 8 j 0.28 0.377 0.263 1
 O4 O 4 i 0.012 0 0.341 1
 K1 K 4 i 0.311 0 0.473 1
 O5 O 4 i 0.425 0 0.112 1
 W1 W 4 i 0.7991 0 0.0552 1
 W2 W 4 h 0 0.1642 0.5 1
 Sm1 Sm 4 g 0 0.3048 0 1


_exptl_crystal_colour                    ?
_exptl_crystal_density_meas              ?
_exptl_crystal_density_diffrn            6.89
_cell_measurement_temperature            ?
_cell_measurement_radiation              'X-rays, Cu Ka'
_cell_measurement_reflns_used            ?
_diffrn_ambient_temperature              ?
_diffrn_measurement_device               'Guinier-de Wolff film'
_diffrn_measurement_device_type          ?
_diffrn_radiation_type                   ?
_diffrn_reflns_number                    ?
_exptl_absorpt_coefficient_mu            ?
_exptl_absorpt_correction_type           ?
_computing_structure_solution            ?
_refine_ls_number_parameters             ?
_refine_ls_number_reflns                 ?
_refine_ls_R_factor_gt                   ?
_refine_ls_wR_factor_gt                  ?

# End of data set 546017


