##############################################################################
#                                                                            #
# As-K-Sn          # KSnAs                                         #  542631 #
#                                                                            #
##############################################################################
#                                                                            #
#                           Pearson's Crystal Data                           #
#      Crystal Structure Database for Inorganic Compounds (on DVD)           #
#                              Release 2017/18                               #
#                  Editors: Pierre Villars and Karin Cenzual                 #
#                                                                            #
#   Copyright (c) ASM International & Material Phases Data System (MPDS),    #
# Switzerland & National Institute for Materials Science (NIMS), Japan, 2017 #
#                   All rights reserved. Version 2017.08                     #
#                                                                            #
#   This copy of Pearson's Crystal Data is licensed to:                      #
#   University of Alberta, Chemistry Department, 1-5 Installations License         #
#                                                                            #
##############################################################################

data_542631
_audit_creation_date                     2017-12-04
_audit_creation_method
;
Pearson's Crystal Data browser
;
#_database_code_PCD                      542631

# Entry summary

_chemical_formula_structural             'K Sn As'
_chemical_formula_sum                    'As K Sn'
_chemical_name_mineral                   ?
_chemical_compound_source                ?
_chemical_name_structure_type            KSnAs,hP6,186
_chemical_formula_weight                 232.7

# Bibliographic data

_publ_section_title
;
Puckered hexagonal nets in ^2^/\\infty[Sn~3/3~As~3/3~^-^] and ^2^/\\infty[Sn~3/3~Sb~3/3~^-^]
;
_journal_coden_ASTM                      JSSCBI
_journal_name_full                       'J. Solid State Chem.'
_journal_year                            1987
_journal_volume                          67
_journal_page_first                      374
_journal_page_last                       378
_journal_language                        English
loop_
 _publ_author_name
 _publ_author_address
'Lii K.H.'
;
Exxon Chemical Co.
Annandale
U.S.A. New Jersey
;
'Haushalter R.C.'
;
Exxon Chemical Co.
Annandale
U.S.A. New Jersey
;

# Standardized crystallographic data

_cell_length_a                           4.1032
_cell_length_b                           4.1032
_cell_length_c                           12.845
_cell_angle_alpha                        90
_cell_angle_beta                         90
_cell_angle_gamma                        120
_cell_volume                             187.3
_cell_formula_units_Z                    2
_space_group_IT_number                   186
_space_group_name_H-M_alt                'P 63 m c'
loop_
 _space_group_symop_id
 _space_group_symop_operation_xyz
 1 'x, y, z'
 2 '-x+y, -x, z'
 3 '-x+y, y, z'
 4 '-x, -x+y, 1/2+z'
 5 '-x, -y, 1/2+z'
 6 '-y, -x, z'
 7 '-y, x-y, z'
 8 'x, x-y, z'
 9 'x-y, -y, 1/2+z'
 10 'x-y, x, 1/2+z'
 11 'y, -x+y, 1/2+z'
 12 'y, x, 1/2+z'
loop_
 _atom_type_symbol
 K
 As
 Sn
loop_
 _atom_site_label
 _atom_site_type_symbol
 _atom_site_symmetry_multiplicity
 _atom_site_Wyckoff_symbol
 _atom_site_fract_x
 _atom_site_fract_y
 _atom_site_fract_z
 _atom_site_occupancy
 K K 2 b 0.333333 0.666667 0.2742 1
 As As 2 b 0.333333 0.666667 0.6033 1
 Sn Sn 2 a 0 0 0.0 1


_exptl_crystal_colour                    ?
_exptl_crystal_density_meas              ?
_exptl_crystal_density_diffrn            4.13
_cell_measurement_temperature            ?
_cell_measurement_radiation              'X-rays, Cu Ka'
_cell_measurement_wavelength             1.5418
_pd_proc_wavelength                      1.5418
_cell_measurement_reflns_used            ?
_diffrn_ambient_temperature              ?
_diffrn_measurement_device               'automatic diffractometer'
_diffrn_measurement_device_type          Philips
_diffrn_radiation_type                   'X-rays, Cu Ka'
_diffrn_radiation_wavelength             1.5418
_diffrn_reflns_number                    ?
_diffrn_reflns_theta_min                 2.5
_diffrn_reflns_theta_max                 40
_exptl_absorpt_coefficient_mu            ?
_exptl_absorpt_correction_type           ?
_computing_structure_solution            'direct methods'
_refine_ls_number_parameters             ?
_refine_ls_number_reflns                 ?
_refine_ls_R_factor_gt                   0.049
_refine_ls_wR_factor_gt                  ?

# Published diffraction lines

loop_
 _refln_index_h
 _refln_index_k
 _refln_index_l
 _refln_d_spacing
 _refln_intensity_meas
 0 0 2 64.1 821
 1 0 0 35.51 124
 1 0 1 34.23 209
 0 0 4 32.09 201
 1 0 2 31.09 1000
 1 0 3 27.34 386
 1 0 4 23.83 530
 0 0 6 21.42 75
 1 1 0 20.51 347
 1 1 2 19.54 135
 2 0 2 17.13 179
 0 0 8 16.056 57
 2 0 4 15.55 122
 2 0 6 13.664 101

# End of data set 542631


