##############################################################################
#                                                                            #
# K-Sb-Sn          # KSnSb                                         #  303020 #
#                                                                            #
##############################################################################
#                                                                            #
#                           Pearson's Crystal Data                           #
#      Crystal Structure Database for Inorganic Compounds (on DVD)           #
#                              Release 2017/18                               #
#                  Editors: Pierre Villars and Karin Cenzual                 #
#                                                                            #
#   Copyright (c) ASM International & Material Phases Data System (MPDS),    #
# Switzerland & National Institute for Materials Science (NIMS), Japan, 2017 #
#                   All rights reserved. Version 2017.08                     #
#                                                                            #
#   This copy of Pearson's Crystal Data is licensed to:                      #
#   University of Alberta, Chemistry Department, 1-5 Installations License         #
#                                                                            #
##############################################################################

data_303020
_audit_creation_date                     2017-12-01
_audit_creation_method
;
Pearson's Crystal Data browser
;
#_database_code_PCD                      303020

# Entry summary

_chemical_formula_structural             'K Sn Sb'
_chemical_formula_sum                    'K Sb Sn'
_chemical_name_mineral                   ?
_chemical_compound_source                ?
_chemical_name_structure_type            KSnAs,hP6,186
_chemical_formula_weight                 279.5

# Bibliographic data

_publ_section_title
;
Zintl-Phasen mit Schichtanionen: Darstellung und Kristallstrukturen der isotypen Verbindungen SrSn~2~As~2~ und Sr~0.87~Ba~0.13~Sn~2~As~2~ sowie eine Einkristallstrukturbestimmung von KSnSb
;
_journal_coden_ASTM                      ZAACAB
_journal_name_full                       'Z. Anorg. Allg. Chem.'
_journal_year                            1991
_journal_volume                          598/599
_journal_page_first                      93
_journal_page_last                       102
_journal_language                        German
loop_
 _publ_author_name
 _publ_author_address
'Eisenmann B.'
;
Eduard Zintl Institut
Abteilung f\"ur Anorganische Chemie
Darmstadt
Germany
;
'Klein J.'
;
Eduard Zintl Institut
Abteilung f\"ur Anorganische Chemie
Darmstadt
Germany
;

# Standardized crystallographic data

_cell_length_a                           4.35
_cell_length_b                           4.35
_cell_length_c                           13.141
_cell_angle_alpha                        90
_cell_angle_beta                         90
_cell_angle_gamma                        120
_cell_volume                             215.3
_cell_formula_units_Z                    2
_space_group_IT_number                   186
_space_group_name_H-M_alt                'P 63 m c'
loop_
 _space_group_symop_id
 _space_group_symop_operation_xyz
 1 'x, y, z'
 2 '-x+y, -x, z'
 3 '-x+y, y, z'
 4 '-x, -x+y, 1/2+z'
 5 '-x, -y, 1/2+z'
 6 '-y, -x, z'
 7 '-y, x-y, z'
 8 'x, x-y, z'
 9 'x-y, -y, 1/2+z'
 10 'x-y, x, 1/2+z'
 11 'y, -x+y, 1/2+z'
 12 'y, x, 1/2+z'
loop_
 _atom_type_symbol
 K
 Sb
 Sn
loop_
 _atom_site_label
 _atom_site_type_symbol
 _atom_site_symmetry_multiplicity
 _atom_site_Wyckoff_symbol
 _atom_site_fract_x
 _atom_site_fract_y
 _atom_site_fract_z
 _atom_site_occupancy
 K1 K 2 b 0.333333 0.666667 0.2982 1
 Sb1 Sb 2 b 0.333333 0.666667 0.6077 1
 Sn1 Sn 2 a 0 0 0.0 1


_exptl_crystal_colour                    'gray silver'
_exptl_crystal_density_meas              ?
_exptl_crystal_density_diffrn            4.31
_cell_measurement_temperature            ?
_cell_measurement_radiation              'X-rays, Mo Ka'
_cell_measurement_reflns_used            ?
_diffrn_ambient_temperature              ?
_diffrn_measurement_device               'automatic diffractometer'
_diffrn_measurement_device_type          'Philips PW1100'
_diffrn_radiation_type                   'X-rays, Mo Ka'
_diffrn_reflns_number                    936
_diffrn_reflns_theta_min                 2.5
_diffrn_reflns_theta_max                 30
_exptl_absorpt_coefficient_mu            12.456
_exptl_absorpt_correction_type           ?
_computing_structure_solution            'starting values from the literature'
_refine_ls_number_parameters             9
_refine_ls_number_reflns                 199
_refine_ls_R_factor_gt                   0.034
_refine_ls_wR_factor_gt                  ?

# End of data set 303020


