##############################################################################
#                                                                            #
# K-Se-Ti          # KTi5Se8                                       #  459998 #
#                                                                            #
##############################################################################
#                                                                            #
#                           Pearson's Crystal Data                           #
#      Crystal Structure Database for Inorganic Compounds (on DVD)           #
#                              Release 2017/18                               #
#                  Editors: Pierre Villars and Karin Cenzual                 #
#                                                                            #
#   Copyright (c) ASM International & Material Phases Data System (MPDS),    #
# Switzerland & National Institute for Materials Science (NIMS), Japan, 2017 #
#                   All rights reserved. Version 2017.08                     #
#                                                                            #
#   This copy of Pearson's Crystal Data is licensed to:                      #
#   University of Alberta, Chemistry Department, 1-5 Installations License         #
#                                                                            #
##############################################################################

data_459998
_audit_creation_date                     2017-12-01
_audit_creation_method
;
Pearson's Crystal Data browser
;
#_database_code_PCD                      459998

# Entry summary

_chemical_formula_structural             'K Ti~5~ Se~8~'
_chemical_formula_sum                    'K Se8 Ti5'
_chemical_name_mineral                   ?
_chemical_compound_source                ?
_chemical_name_structure_type            Tl~0.83~V~5~S~8~,mS28,12
_chemical_formula_weight                 910.3

# Bibliographic data

_publ_section_title
;
Synthesis of new ternary tunnel chalcogenides by ion exchange reactions and deintercalation of the ternary chromium selenides
;
_journal_coden_ASTM                      MRBUAC
_journal_name_full                       'Mater. Res. Bull.'
_journal_year                            1993
_journal_volume                          28
_journal_page_first                      501
_journal_page_last                       508
_journal_language                        English
loop_
 _publ_author_name
 _publ_author_address
'Ohtani T.'
;
Okayama University of Science
Laboratory of Solid State Chemistry
Okayama / Okayama
Japan
;
'Sano Y.'
;
Okayama University of Science
Laboratory of Solid State Chemistry
Okayama / Okayama
Japan
;
'Kodama K.'
;
Okayama University of Science
Laboratory of Solid State Chemistry
Okayama / Okayama
Japan
;
'Onoue S.'
;
Okayama University of Science
Laboratory of Solid State Chemistry
Okayama / Okayama
Japan
;
'Nishihara H.'
;
Otsu Shiga Ryukoku University
Faculty of Science and Technology
Otsu / Shiga
Japan
;

# Standardized crystallographic data

_cell_length_a                           18.75
_cell_length_b                           3.585
_cell_length_c                           9.1159
_cell_angle_alpha                        90
_cell_angle_beta                         104.1
_cell_angle_gamma                        90
_cell_volume                             594.3
_cell_formula_units_Z                    2
_space_group_IT_number                   12
_space_group_name_H-M_alt                'C 1 2/m 1'
loop_
 _space_group_symop_id
 _space_group_symop_operation_xyz
 1 'x, y, z'
 2 '-x, -y, -z'
 3 '-x, y, -z'
 4 'x, -y, z'
 5 '1/2+x, 1/2+y, z'
 6 '1/2-x, 1/2-y, -z'
 7 '1/2-x, 1/2+y, -z'
 8 '1/2+x, 1/2-y, z'

# Atomic positions taken from type-defining entry

loop_
 _atom_type_symbol
 Se
 Ti
 K
loop_
 _atom_site_label
 _atom_site_type_symbol
 _atom_site_symmetry_multiplicity
 _atom_site_Wyckoff_symbol
 _atom_site_fract_x
 _atom_site_fract_y
 _atom_site_fract_z
 _atom_site_occupancy
 Se1 Se 4 i 0.0851 0 0.3169 1
 Se2 Se 4 i 0.1609 0 0.0015 1
 Se3 Se 4 i 0.2406 0 0.659 1
 Ti1 Ti 4 i 0.2905 0 0.1454 1
 Ti2 Ti 4 i 0.3496 0 0.5087 1
 Se4 Se 4 i 0.4261 0 0.3239 1
 Ti3 Ti 2 c 0 0 0.5 1
 K1 K 2 b 0 0.5 0 1


_exptl_crystal_colour                    ?
_exptl_crystal_density_meas              ?
_exptl_crystal_density_diffrn            5.09
_cell_measurement_temperature            ?
_cell_measurement_radiation              X-rays
_cell_measurement_reflns_used            ?
_diffrn_ambient_temperature              ?
_diffrn_measurement_device               'automatic diffractometer'
_diffrn_measurement_device_type          ?
_diffrn_radiation_type                   ?
_diffrn_reflns_number                    ?
_exptl_absorpt_coefficient_mu            ?
_exptl_absorpt_correction_type           ?
_computing_structure_solution            ?
_refine_ls_number_parameters             ?
_refine_ls_number_reflns                 ?
_refine_ls_R_factor_gt                   ?
_refine_ls_wR_factor_gt                  ?

# End of data set 459998


