##############################################################################
#                                                                            #
# K-O-V            # KV6O11 hp rt                                  # 1521545 #
#                                                                            #
##############################################################################
#                                                                            #
#                           Pearson's Crystal Data                           #
#      Crystal Structure Database for Inorganic Compounds (on DVD)           #
#                              Release 2017/18                               #
#                  Editors: Pierre Villars and Karin Cenzual                 #
#                                                                            #
#   Copyright (c) ASM International & Material Phases Data System (MPDS),    #
# Switzerland & National Institute for Materials Science (NIMS), Japan, 2017 #
#                   All rights reserved. Version 2017.08                     #
#                                                                            #
#   This copy of Pearson's Crystal Data is licensed to:                      #
#   University of Alberta, Chemistry Department, 1-5 Installations License         #
#                                                                            #
##############################################################################

data_1521545
_audit_creation_date                     2017-12-05
_audit_creation_method
;
Pearson's Crystal Data browser
;
#_database_code_PCD                      1521545

# Entry summary

_chemical_formula_structural             'K V~6~ O~11~'
_chemical_formula_sum                    'K O11 V6'
_chemical_name_mineral                   ?
_chemical_compound_source                ?
_chemical_name_structure_type
Ba(Ti~0.33~Fe~0.67~)~6~O~11~,hP36,194                                         
_chemical_formula_weight                 520.7

# Bibliographic data

_publ_section_title
'KV~6~O~11~: A magnetic metal synthesized at high pressure'                   
_journal_coden_ASTM                      PRBMDO
_journal_name_full
'Phys. Rev. B: Condens. Matter Mater. Phys.'                                  
_journal_year                            1999
_journal_volume                          60
_journal_page_first                      3764
_journal_page_last                       3776
_journal_language                        English
loop_
 _publ_author_name
 _publ_author_address
'Kanke Y.'
;
National Institute for Materials Science (NIMS)
Tsukuba / Ibaraki
Japan
;

# Standardized crystallographic data

_cell_length_a                           5.7233
_cell_length_b                           5.7233
_cell_length_c                           13.2282
_cell_angle_alpha                        90
_cell_angle_beta                         90
_cell_angle_gamma                        120
_cell_volume                             375.3
_cell_formula_units_Z                    2
_space_group_IT_number                   194
_space_group_name_H-M_alt                'P 63/m m c'
loop_
 _space_group_symop_id
 _space_group_symop_operation_xyz
 1 'x, y, z'
 2 '-x+y, -x, 1/2-z'
 3 '-x+y, -x, z'
 4 '-x+y, y, 1/2-z'
 5 '-x+y, y, z'
 6 '-x, -x+y, -z'
 7 '-x, -x+y, 1/2+z'
 8 '-x, -y, -z'
 9 '-x, -y, 1/2+z'
 10 '-y, -x, 1/2-z'
 11 '-y, -x, z'
 12 '-y, x-y, 1/2-z'
 13 '-y, x-y, z'
 14 'x, x-y, 1/2-z'
 15 'x, x-y, z'
 16 'x, y, 1/2-z'
 17 'x-y, -y, -z'
 18 'x-y, -y, 1/2+z'
 19 'x-y, x, -z'
 20 'x-y, x, 1/2+z'
 21 'y, -x+y, -z'
 22 'y, -x+y, 1/2+z'
 23 'y, x, -z'
 24 'y, x, 1/2+z'
loop_
 _atom_type_symbol
 O
 V
 K
loop_
 _atom_site_label
 _atom_site_type_symbol
 _atom_site_symmetry_multiplicity
 _atom_site_Wyckoff_symbol
 _atom_site_fract_x
 _atom_site_fract_y
 _atom_site_fract_z
 _atom_site_occupancy
 O1 O 12 k 0.1693 0.3386 0.57891 1
 O2 O 6 h 0.15271 0.30542 0.25 1
 V1 V 6 g 0.5 0 0 1
 O3 O 4 f 0.333333 0.666667 0.09037 1
 V2 V 4 e 0 0 0.14691 1
 K K 2 d 0.333333 0.666667 0.75 1
 V3 V 2 c 0.333333 0.666667 0.25 1


_exptl_crystal_colour                    black
_exptl_crystal_density_meas              ?
_exptl_crystal_density_diffrn            4.61
_cell_measurement_temperature            295
_cell_measurement_radiation              'X-rays, Mo Ka'
_cell_measurement_wavelength             0.7093
_cell_measurement_reflns_used            22
_diffrn_ambient_temperature              295
_diffrn_measurement_device               'automatic diffractometer'
_diffrn_measurement_device_type          'Enraf-Nonius CAD4'
_diffrn_radiation_type                   'X-rays, Mo Ka'
_diffrn_radiation_wavelength             0.7093
_diffrn_reflns_number                    1280
_exptl_absorpt_coefficient_mu            7.5668
_exptl_absorpt_correction_type           ?
_computing_structure_solution            'direct methods'
_refine_ls_number_parameters             ?
_refine_ls_number_reflns                 542
_refine_ls_R_factor_gt                   0.016
_refine_ls_wR_factor_gt                  0.019

# End of data set 1521545


