##############################################################################
#                                                                            #
# K-O-V            # KV6O11 hp lt                                  # 1521546 #
#                                                                            #
##############################################################################
#                                                                            #
#                           Pearson's Crystal Data                           #
#      Crystal Structure Database for Inorganic Compounds (on DVD)           #
#                              Release 2017/18                               #
#                  Editors: Pierre Villars and Karin Cenzual                 #
#                                                                            #
#   Copyright (c) ASM International & Material Phases Data System (MPDS),    #
# Switzerland & National Institute for Materials Science (NIMS), Japan, 2017 #
#                   All rights reserved. Version 2017.08                     #
#                                                                            #
#   This copy of Pearson's Crystal Data is licensed to:                      #
#   University of Alberta, Chemistry Department, 1-5 Installations License         #
#                                                                            #
##############################################################################

data_1521546
_audit_creation_date                     2017-12-05
_audit_creation_method
;
Pearson's Crystal Data browser
;
#_database_code_PCD                      1521546

# Entry summary

_chemical_formula_structural             'K V~6~ O~11~'
_chemical_formula_sum                    'K O11 V6'
_chemical_name_mineral                   ?
_chemical_compound_source                ?
_chemical_name_structure_type            NaV~6~O~11~,hP36,186
_chemical_formula_weight                 520.7

# Bibliographic data

_publ_section_title
'KV~6~O~11~: A magnetic metal synthesized at high pressure'                   
_journal_coden_ASTM                      PRBMDO
_journal_name_full
'Phys. Rev. B: Condens. Matter Mater. Phys.'                                  
_journal_year                            1999
_journal_volume                          60
_journal_page_first                      3764
_journal_page_last                       3776
_journal_language                        English
loop_
 _publ_author_name
 _publ_author_address
'Kanke Y.'
;
National Institute for Materials Science (NIMS)
Tsukuba / Ibaraki
Japan
;

# Standardized crystallographic data

_cell_length_a                           5.7137
_cell_length_b                           5.7137
_cell_length_c                           13.1947
_cell_angle_alpha                        90
_cell_angle_beta                         90
_cell_angle_gamma                        120
_cell_volume                             373
_cell_formula_units_Z                    2
_space_group_IT_number                   186
_space_group_name_H-M_alt                'P 63 m c'
loop_
 _space_group_symop_id
 _space_group_symop_operation_xyz
 1 'x, y, z'
 2 '-x+y, -x, z'
 3 '-x+y, y, z'
 4 '-x, -x+y, 1/2+z'
 5 '-x, -y, 1/2+z'
 6 '-y, -x, z'
 7 '-y, x-y, z'
 8 'x, x-y, z'
 9 'x-y, -y, 1/2+z'
 10 'x-y, x, 1/2+z'
 11 'y, -x+y, 1/2+z'
 12 'y, x, 1/2+z'
loop_
 _atom_type_symbol
 O
 V
 K
loop_
 _atom_site_label
 _atom_site_type_symbol
 _atom_site_symmetry_multiplicity
 _atom_site_Wyckoff_symbol
 _atom_site_fract_x
 _atom_site_fract_y
 _atom_site_fract_z
 _atom_site_occupancy
 O12 O 6 c 0.16855 0.83145 0.27369 1
 V1 V 6 c 0.50602 0.49398 0.3521 1
 O11 O 6 c 0.83045 0.16955 0.43198 1
 O2 O 6 c 0.84718 0.15282 0.10158 1
 K K 2 b 0.333333 0.666667 0.10496 1
 O31 O 2 b 0.333333 0.666667 0.43899 1
 V3 V 2 b 0.333333 0.666667 0.59672 1
 O32 O 2 b 0.333333 0.666667 0.75673 1
 V21 V 2 a 0 0 0.0 1
 V22 V 2 a 0 0 0.20599 1


_exptl_crystal_colour                    ?
_exptl_crystal_density_meas              ?
_exptl_crystal_density_diffrn            4.64
_cell_measurement_temperature            154
_cell_measurement_radiation              'X-rays, Mo Ka'
_cell_measurement_wavelength             0.7093
_cell_measurement_reflns_used            22
_diffrn_ambient_temperature              154
_diffrn_measurement_device               'automatic diffractometer'
_diffrn_measurement_device_type          'Enraf-Nonius CAD4'
_diffrn_radiation_type                   'X-rays, Mo Ka'
_diffrn_radiation_wavelength             0.7093
_diffrn_reflns_number                    1272
_exptl_absorpt_coefficient_mu            7.5668
_exptl_absorpt_correction_type           ?
_computing_structure_solution            'direct methods'
_refine_ls_number_parameters             ?
_refine_ls_number_reflns                 1189
_refine_ls_R_factor_gt                   0.026
_refine_ls_wR_factor_gt                  0.043

# End of data set 1521546


