##############################################################################
#                                                                            #
# I-K-O-V          # KV[IO3]2O2                                    # 1520194 #
#                                                                            #
##############################################################################
#                                                                            #
#                           Pearson's Crystal Data                           #
#      Crystal Structure Database for Inorganic Compounds (on DVD)           #
#                              Release 2017/18                               #
#                  Editors: Pierre Villars and Karin Cenzual                 #
#                                                                            #
#   Copyright (c) ASM International & Material Phases Data System (MPDS),    #
# Switzerland & National Institute for Materials Science (NIMS), Japan, 2017 #
#                   All rights reserved. Version 2017.08                     #
#                                                                            #
#   This copy of Pearson's Crystal Data is licensed to:                      #
#   University of Alberta, Chemistry Department, 1-5 Installations License         #
#                                                                            #
##############################################################################

data_1520194
_audit_creation_date                     2017-12-05
_audit_creation_method
;
Pearson's Crystal Data browser
;
#_database_code_PCD                      1520194

# Entry summary

_chemical_formula_structural             'K V [I O~3~]~2~ O~2~'
_chemical_formula_sum                    'I2 K O8 V'
_chemical_name_mineral                   ?
_chemical_compound_source                ?
_chemical_name_structure_type            KV[IO~3~]~2~O~2~,mP48,14
_chemical_formula_weight                 471.8

# Bibliographic data

_publ_section_title
;
New one-dimensional vanadyl iodates: Hydrothermal preparation, structures, and NLO properties of A[VO~2~(IO~3~)~2~] (A= K, Rb) and A[(VO)~2~(IO~3~)~3~O~2~] (A= NH~4~, Rb, Cs)
;
_journal_coden_ASTM                      CMATEX
_journal_name_full                       'Chem. Mater.'
_journal_year                            2002
_journal_volume                          14
_journal_page_first                      2741
_journal_page_last                       2749
_journal_language                        English
loop_
 _publ_author_name
 _publ_author_address
'Sykora R.E.'
;
Alabama Auburn University
Department of Chemistry
Auburn
U.S.A. Alabama
;
'Ok K.M.'
;
Texas Houston University
Department of Chemistry
Houston
U.S.A. Texas
;
'Halasyamani P.S.'
;
Texas Houston University
Department of Chemistry
Houston
U.S.A. Texas
;
'Wells D.M.'
;
Alabama Auburn University
Department of Chemistry
Auburn
U.S.A. Alabama
;
'Albrecht Schmitt T.E.'
;
Alabama Auburn University
Department of Chemistry
Auburn
U.S.A. Alabama
;

# Standardized crystallographic data

_cell_length_a                           9.4
_cell_length_b                           5.2383
_cell_length_c                           16.1283
_cell_angle_alpha                        90
_cell_angle_beta                         109.499
_cell_angle_gamma                        90
_cell_volume                             748.6
_cell_formula_units_Z                    4
_space_group_IT_number                   14
_space_group_name_H-M_alt                'P 1 21/c 1'
loop_
 _space_group_symop_id
 _space_group_symop_operation_xyz
 1 'x, y, z'
 2 '-x, -y, -z'
 3 '-x, 1/2+y, 1/2-z'
 4 'x, 1/2-y, 1/2+z'
loop_
 _atom_type_symbol
 O
 I
 V
 K
loop_
 _atom_site_label
 _atom_site_type_symbol
 _atom_site_symmetry_multiplicity
 _atom_site_Wyckoff_symbol
 _atom_site_fract_x
 _atom_site_fract_y
 _atom_site_fract_z
 _atom_site_occupancy
 O7 O 4 e 0.0461 0.0672 0.1818 1
 I2 I 4 e 0.06265 0.18075 0.42671 1
 O4 O 4 e 0.1026 0.5621 0.1643 1
 V1 V 4 e 0.20147 0.2224 0.18871 1
 O5 O 4 e 0.202 0.2018 0.3739 1
 O8 O 4 e 0.235 0.1737 0.0974 1
 O1 O 4 e 0.3505 0.4545 0.2748 1
 O2 O 4 e 0.5666 0.2381 0.0767 1
 K K 4 e 0.58362 0.2224 0.40692 1
 O3 O 4 e 0.6554 0.4662 0.2395 1
 I1 I 4 e 0.71881 0.22425 0.17739 1
 O6 O 4 e 0.8786 0.3796 0.0183 1


_exptl_crystal_colour                    yellow
_exptl_crystal_density_meas              ?
_exptl_crystal_density_diffrn            4.19
_cell_measurement_temperature            193
_cell_measurement_radiation              'X-rays, Mo Ka'
_cell_measurement_wavelength             0.71073
_cell_measurement_reflns_used            ?
_diffrn_ambient_temperature              193
_diffrn_measurement_device               'automatic diffractometer'
_diffrn_measurement_device_type          'Bruker AXS SMART APEX'
_diffrn_radiation_type                   'X-rays, Mo Ka'
_diffrn_radiation_wavelength             0.71073
_diffrn_reflns_number                    ?
_exptl_absorpt_coefficient_mu            10.136
_exptl_absorpt_correction_type           semi-empirical
_computing_structure_solution            'starting values from the literature'
_refine_ls_number_parameters             ?
_refine_ls_number_reflns                 ?
_refine_ls_R_factor_gt                   0.0259
_refine_ls_wR_factor_gt                  0.0853

# End of data set 1520194


