##############################################################################
#                                                                            #
# F-K-Yb           # KYb2F7 ht                                     #  552115 #
#                                                                            #
##############################################################################
#                                                                            #
#                           Pearson's Crystal Data                           #
#      Crystal Structure Database for Inorganic Compounds (on DVD)           #
#                              Release 2017/18                               #
#                  Editors: Pierre Villars and Karin Cenzual                 #
#                                                                            #
#   Copyright (c) ASM International & Material Phases Data System (MPDS),    #
# Switzerland & National Institute for Materials Science (NIMS), Japan, 2017 #
#                   All rights reserved. Version 2017.08                     #
#                                                                            #
#   This copy of Pearson's Crystal Data is licensed to:                      #
#   University of Alberta, Chemistry Department, 1-5 Installations License         #
#                                                                            #
##############################################################################

data_552115
_audit_creation_date                     2017-12-04
_audit_creation_method
;
Pearson's Crystal Data browser
;
#_database_code_PCD                      552115

# Entry summary

_chemical_formula_structural             'K Yb~2~ F~7~'
_chemical_formula_sum                    'F7 K Yb2'
_chemical_name_mineral                   ?
_chemical_compound_source                ?
_chemical_name_structure_type            KYb~2~F~7~,mP10,3
_chemical_formula_weight                 518.2
_chemical_melting_point                  1283

# Bibliographic data

_publ_section_title
'Morphotropy in lanthanide fluoride series'                                   
_journal_coden_ASTM                      INOMAF
_journal_name_full                       'Inorg. Mater.'
_journal_year                            1993
_journal_volume                          29
_journal_page_first                      1152
_journal_page_last                       1156
_journal_language                        English
loop_
 _publ_author_name
 _publ_author_address
'Khaidukov N.M.'
;
Russian Academy of Sciences
Kurnakov N.S. Institute of General and Inorganic Chemistry
Moscow
Russia
;
'Filatova T.G.'
;
Moscow M.V. Lomonosov State University
Moscow
Russia
;
'Ikrami M.B.'
;
Tajikistan Academy of Sciences
Nikitin Institute of Chemistry
Dushanbe
Tajikistan
;
'Fedorov P.P.'
;
Russian Academy of Sciences
Shubnikov A.V. Institute of Crystallography
Moscow
Russia
;

# Standardized crystallographic data

_cell_length_a                           6.39
_cell_length_b                           4.198
_cell_length_c                           6.495
_cell_angle_alpha                        90
_cell_angle_beta                         115.82
_cell_angle_gamma                        90
_cell_volume                             156.8
_cell_formula_units_Z                    1
_space_group_IT_number                   3
_space_group_name_H-M_alt                'P 1 2 1'
loop_
 _space_group_symop_id
 _space_group_symop_operation_xyz
 1 'x, y, z'
 2 '-x, y, -z'

# Atomic positions taken from type-defining entry

loop_
 _atom_type_symbol
 F
 Yb
 K
loop_
 _atom_site_label
 _atom_site_type_symbol
 _atom_site_symmetry_multiplicity
 _atom_site_Wyckoff_symbol
 _atom_site_fract_x
 _atom_site_fract_y
 _atom_site_fract_z
 _atom_site_occupancy
 F1 F 2 e 0.0454 0.5 0.3326 1
 F2 F 2 e 0.329 0.5 0.043 1
 Yb1 Yb 2 e 0.6912 0.5 0.3078 1
 F3 F 2 e 0.7068 0.0 0.2888 1
 F4 F 1 d 0.5 0.3928 0.5 1
 K1 K 1 a 0 0.0 0 1


_exptl_crystal_colour                    ?
_exptl_crystal_density_meas              ?
_exptl_crystal_density_diffrn            5.49
_cell_measurement_temperature            ?
_cell_measurement_radiation              'X-rays, Cu Ka'
_cell_measurement_reflns_used            ?
_diffrn_ambient_temperature              ?
_diffrn_measurement_device               film
_diffrn_measurement_device_type          ?
_diffrn_radiation_type                   ?
_diffrn_reflns_number                    ?
_exptl_absorpt_coefficient_mu            ?
_exptl_absorpt_correction_type           ?
_computing_structure_solution            ?
_refine_ls_number_parameters             ?
_refine_ls_number_reflns                 ?
_refine_ls_R_factor_gt                   ?
_refine_ls_wR_factor_gt                  ?

# End of data set 552115


