##############################################################################
#                                                                            #
# Ge-K-S-Y         # KYGeS4                                        #  537607 #
#                                                                            #
##############################################################################
#                                                                            #
#                           Pearson's Crystal Data                           #
#      Crystal Structure Database for Inorganic Compounds (on DVD)           #
#                              Release 2017/18                               #
#                  Editors: Pierre Villars and Karin Cenzual                 #
#                                                                            #
#   Copyright (c) ASM International & Material Phases Data System (MPDS),    #
# Switzerland & National Institute for Materials Science (NIMS), Japan, 2017 #
#                   All rights reserved. Version 2017.08                     #
#                                                                            #
#   This copy of Pearson's Crystal Data is licensed to:                      #
#   University of Alberta, Chemistry Department, 1-5 Installations License         #
#                                                                            #
##############################################################################

data_537607
_audit_creation_date                     2017-12-04
_audit_creation_method
;
Pearson's Crystal Data browser
;
#_database_code_PCD                      537607

# Entry summary

_chemical_formula_structural             'K Y Ge S~4~'
_chemical_formula_sum                    'Ge K S4 Y'
_chemical_name_mineral                   ?
_chemical_compound_source                ?
_chemical_name_structure_type            KLaGeS~4~,mP14,4
_chemical_formula_weight                 328.8

# Bibliographic data

_publ_section_title
;
Synthesis and Structures of the Quaternary Chalcogenides of the Type KLnMQ~4~ (Ln= La, Nd, Gd, Y; M= Si, Ge; Q= S, Se)
;
_journal_coden_ASTM                      JSSCBI
_journal_name_full                       'J. Solid State Chem.'
_journal_year                            1993
_journal_volume                          107
_journal_page_first                      347
_journal_page_last                       355
_journal_language                        English
loop_
 _publ_author_name
 _publ_author_address
'Wu P.'
;
Illinois Evanston Northwestern University
Department of Chemistry
Evanston
U.S.A. Illinois
;
'Ibers J.A.'
;
Illinois Evanston Northwestern University
Department of Chemistry
Evanston
U.S.A. Illinois
;

# Standardized crystallographic data

_cell_length_a                           6.42
_cell_length_b                           6.6
_cell_length_c                           8.49
_cell_angle_alpha                        90
_cell_angle_beta                         107.
_cell_angle_gamma                        90
_cell_volume                             344
_cell_formula_units_Z                    2
_space_group_IT_number                   4
_space_group_name_H-M_alt                'P 1 21 1'
loop_
 _space_group_symop_id
 _space_group_symop_operation_xyz
 1 'x, y, z'
 2 '-x, 1/2+y, -z'

# Atomic positions taken from type-defining entry

loop_
 _atom_type_symbol
 S
 Ge
 Y
 K
loop_
 _atom_site_label
 _atom_site_type_symbol
 _atom_site_symmetry_multiplicity
 _atom_site_Wyckoff_symbol
 _atom_site_fract_x
 _atom_site_fract_y
 _atom_site_fract_z
 _atom_site_occupancy
 S1 S 2 a 0.0147 0.25798 0.27989 1
 S2 S 2 a 0.0188 0.26898 0.73214 1
 Ge1 Ge 2 a 0.21624 0.52594 0.31258 1
 Y1 Y 2 a 0.23221 0.0 0.5543 1
 K1 K 2 a 0.27155 0.01493 0.06556 1
 S3 S 2 a 0.41368 0.52863 0.15277 1
 S4 S 2 a 0.59168 0.06459 0.43019 1


_exptl_crystal_colour                    colorless
_exptl_crystal_density_meas              ?
_exptl_crystal_density_diffrn            3.17
_cell_measurement_temperature            115
_cell_measurement_radiation              'X-rays, Cu Ka'
_cell_measurement_reflns_used            ?
_diffrn_ambient_temperature              ?
_diffrn_measurement_device               'automatic diffractometer'
_diffrn_measurement_device_type          ?
_diffrn_radiation_type                   ?
_diffrn_reflns_number                    ?
_exptl_absorpt_coefficient_mu            ?
_exptl_absorpt_correction_type           ?
_computing_structure_solution            ?
_refine_ls_number_parameters             ?
_refine_ls_number_reflns                 ?
_refine_ls_R_factor_gt                   ?
_refine_ls_wR_factor_gt                  ?

# End of data set 537607


