##############################################################################
#                                                                            #
# K-O-P-Zn         # KZnP3O9                                       #  315054 #
#                                                                            #
##############################################################################
#                                                                            #
#                           Pearson's Crystal Data                           #
#      Crystal Structure Database for Inorganic Compounds (on DVD)           #
#                              Release 2017/18                               #
#                  Editors: Pierre Villars and Karin Cenzual                 #
#                                                                            #
#   Copyright (c) ASM International & Material Phases Data System (MPDS),    #
# Switzerland & National Institute for Materials Science (NIMS), Japan, 2017 #
#                   All rights reserved. Version 2017.08                     #
#                                                                            #
#   This copy of Pearson's Crystal Data is licensed to:                      #
#   University of Alberta, Chemistry Department, 1-5 Installations License         #
#                                                                            #
##############################################################################

data_315054
_audit_creation_date                     2017-12-01
_audit_creation_method
;
Pearson's Crystal Data browser
;
#_database_code_PCD                      315054

# Entry summary

_chemical_formula_structural             'K Zn P~3~ O~9~'
_chemical_formula_sum                    'K O9 P3 Zn'
_chemical_name_mineral                   ?
_chemical_compound_source                ?
_chemical_name_structure_type            BaTiSi~3~O~9~,hP28,188
_chemical_formula_weight                 341.4

# Bibliographic data

_publ_section_title
;
Pr\'eparation et \'etude cristallographique des trim\'etaphosphates du type (PO~3~)~3~M^2+^K
;
_journal_coden_ASTM                      CHDBAN
_journal_name_full                       'C. R. Seances Acad. Sci., Ser. B'
_journal_year                            1966
_journal_volume                          262
_journal_page_first                      718
_journal_page_last                       721
_journal_language                        French
loop_
 _publ_author_name
 _publ_author_address
'Andrieu R.'
;
Grenoble Joseph Fourier Institute
Laboratoire d'Electrostatique et de Physique du M\'etal
Grenoble
France
;
'Diament R.'
;
Grenoble Joseph Fourier Institute
Laboratoire d'Electrostatique et de Physique du M\'etal
Grenoble
France
;
'Durif A.'
;
Grenoble Joseph Fourier Institute
Laboratoire d'Electrostatique et de Physique du M\'etal
Grenoble
France
;
'Pouchot M.T.'
;
Grenoble Joseph Fourier Institute
Laboratoire d'Electrostatique et de Physique du M\'etal
Grenoble
France
;
'Qui D.T.'
;
Grenoble Joseph Fourier Institute
Laboratoire d'Electrostatique et de Physique du M\'etal
Grenoble
France
;

# Standardized crystallographic data

_cell_length_a                           6.606
_cell_length_b                           6.606
_cell_length_c                           9.743
_cell_angle_alpha                        90
_cell_angle_beta                         90
_cell_angle_gamma                        120
_cell_volume                             368.2
_cell_formula_units_Z                    2
_space_group_IT_number                   188
_space_group_name_H-M_alt                'P -6 c 2'
loop_
 _space_group_symop_id
 _space_group_symop_operation_xyz
 1 'x, y, z'
 2 '-x+y, -x, 1/2-z'
 3 '-x+y, -x, z'
 4 '-x+y, y, -z'
 5 '-x+y, y, 1/2+z'
 6 '-y, -x, -z'
 7 '-y, -x, 1/2+z'
 8 '-y, x-y, 1/2-z'
 9 '-y, x-y, z'
 10 'x, x-y, -z'
 11 'x, x-y, 1/2+z'
 12 'x, y, 1/2-z'

# Atomic positions taken from type-defining entry

loop_
 _atom_type_symbol
 O
 P
 K
 Zn
loop_
 _atom_site_label
 _atom_site_type_symbol
 _atom_site_symmetry_multiplicity
 _atom_site_Wyckoff_symbol
 _atom_site_fract_x
 _atom_site_fract_y
 _atom_site_fract_z
 _atom_site_occupancy
 O1 O 12 l 0.24533 0.00886 0.11275 1
 O2 O 6 k 0.07985 0.60592 0.25 1
 P1 P 6 k 0.11505 0.37726 0.25 1
 K1 K 2 e 0.666667 0.333333 0 1
 Zn1 Zn 2 a 0 0 0 1


_exptl_crystal_colour                    ?
_exptl_crystal_density_meas              ?
_exptl_crystal_density_diffrn            3.08
_cell_measurement_temperature            ?
_cell_measurement_radiation              'X-rays, Cu Ka'
_cell_measurement_reflns_used            ?
_diffrn_ambient_temperature              ?
_diffrn_measurement_device               'automatic diffractometer'
_diffrn_measurement_device_type          ?
_diffrn_radiation_type                   ?
_diffrn_reflns_number                    ?
_exptl_absorpt_coefficient_mu            ?
_exptl_absorpt_correction_type           ?
_computing_structure_solution            ?
_refine_ls_number_parameters             ?
_refine_ls_number_reflns                 ?
_refine_ls_R_factor_gt                   ?
_refine_ls_wR_factor_gt                  ?

# Published diffraction lines

loop_
 _refln_index_h
 _refln_index_k
 _refln_index_l
 _refln_d_spacing
 _refln_intensity_meas
 1 0 0 56.9 46
 0 0 2 48.5 5
 1 0 2 37 100
 1 1 0 33 2
 1 1 1 31.2 47
 2 0 0 28.6 22
 1 1 2 27.3 76
 2 0 2 24.6 6
 0 0 4 24.3 9
 1 1 3 23.1 2
 2 1 0 21.6 13
 2 1 1 21.1 14
 2 1 2 19.75 1
 1 1 4 19.58 14
 3 0 0 19.04 13
 2 0 4 18.51 13
 2 1 3 17.98 4
 3 0 2 17.73 9
 2 2 0 16.51 1
 2 2 1 16.25 0.5
 2 1 4 16.15 17
 3 1 0 15.85 4
 3 1 1 15.64 12
 3 1 2 15.08 7
 3 0 4 15.01 3
 1 1 6 14.56 8

# End of data set 315054


