##############################################################################
#                                                                            #
# H-La-O-S         # La2[SO4]3[H2O]9                               #  381663 #
#                                                                            #
##############################################################################
#                                                                            #
#                           Pearson's Crystal Data                           #
#      Crystal Structure Database for Inorganic Compounds (on DVD)           #
#                              Release 2017/18                               #
#                  Editors: Pierre Villars and Karin Cenzual                 #
#                                                                            #
#   Copyright (c) ASM International & Material Phases Data System (MPDS),    #
# Switzerland & National Institute for Materials Science (NIMS), Japan, 2017 #
#                   All rights reserved. Version 2017.08                     #
#                                                                            #
#   This copy of Pearson's Crystal Data is licensed to:                      #
#   University of Alberta, Chemistry Department, 1-5 Installations License         #
#                                                                            #
##############################################################################

data_381663
_audit_creation_date                     2017-12-01
_audit_creation_method
;
Pearson's Crystal Data browser
;
#_database_code_PCD                      381663

# Entry summary

_chemical_formula_structural             'La~2~ [S O~4~]~3~ [H~2~ O]~9~'
_chemical_formula_sum                    'H18 La2 O21 S3'
_chemical_name_mineral                   ?
_chemical_compound_source                ?
_chemical_name_structure_type            La~2~[SO~4~]~3~[H~2~O]~9~,hP52,176
_chemical_formula_weight                 728.1

# Bibliographic data

_publ_section_title
;
D\'ecomposition thermique du sulfate de lanthane hydrat\'e La~2~(SO~4~)~3~.9H~2~O. II. Les diff\'erents hydrates - Etude radiocristallographique de l'enn\'eahydrate
;
_journal_coden_ASTM                      BSCFAS
_journal_name_full                       'Bull. Soc. Chim. Fr.'
_journal_year                            1963
_journal_volume                          ?
_journal_page_first                      1059
_journal_page_last                       1062
_journal_language                        French
loop_
 _publ_author_name
 _publ_author_address
'Pannetier G.'
;
Orsay Paris Sud XI University
Laboratoire de Chimie G\'en\'erale
Orsay
France
;
'Dereigne A.'
;
Orsay Paris Sud XI University
Laboratoire de Chimie G\'en\'erale
Orsay
France
;

# Standardized crystallographic data

_cell_length_a                           10.98
_cell_length_b                           10.98
_cell_length_c                           8.11
_cell_angle_alpha                        90
_cell_angle_beta                         90
_cell_angle_gamma                        120
_cell_volume                             846.8
_cell_formula_units_Z                    2
_space_group_IT_number                   176
_space_group_name_H-M_alt                'P 63/m'
loop_
 _space_group_symop_id
 _space_group_symop_operation_xyz
 1 'x, y, z'
 2 '-x+y, -x, 1/2-z'
 3 '-x+y, -x, z'
 4 '-x, -y, -z'
 5 '-x, -y, 1/2+z'
 6 '-y, x-y, 1/2-z'
 7 '-y, x-y, z'
 8 'x, y, 1/2-z'
 9 'x-y, x, -z'
 10 'x-y, x, 1/2+z'
 11 'y, -x+y, -z'
 12 'y, -x+y, 1/2+z'

# Atomic positions taken from type-defining entry

loop_
 _atom_type_symbol
 O
 S
 La
loop_
 _atom_site_label
 _atom_site_type_symbol
 _atom_site_symmetry_multiplicity
 _atom_site_Wyckoff_symbol
 _atom_site_fract_x
 _atom_site_fract_y
 _atom_site_fract_z
 _atom_site_occupancy
 O1 O 12 i 0.2249 0.2595 0.0997 1
 O2 O 12 i 0.5375 0.157 0.0215 1
 O3 O 6 h 0.1023 0.4373 0.25 1
 O4 O 6 h 0.1674 0.0538 0.25 1
 S1 S 6 h 0.26096 0.20988 0.25 1
 O5 O 6 h 0.4064 0.244 0.25 1
 La1 La 2 d 0.666667 0.333333 0.25 1
 La2 La 2 b 0 0 0 1


_exptl_crystal_colour                    ?
_exptl_crystal_density_meas              2.821
_exptl_crystal_density_diffrn            2.86
_cell_measurement_temperature            ?
_cell_measurement_radiation              'X-rays, Cu Ka'
_cell_measurement_reflns_used            ?
_diffrn_ambient_temperature              ?
_diffrn_measurement_device               'Guinier film'
_diffrn_measurement_device_type          ?
_diffrn_radiation_type                   ?
_diffrn_reflns_number                    ?
_exptl_absorpt_coefficient_mu            ?
_exptl_absorpt_correction_type           ?
_computing_structure_solution            ?
_refine_ls_number_parameters             ?
_refine_ls_number_reflns                 ?
_refine_ls_R_factor_gt                   ?
_refine_ls_wR_factor_gt                  ?

# Published diffraction lines

loop_
 _refln_index_h
 _refln_index_k
 _refln_index_l
 _refln_d_spacing
 _refln_intensity_meas
 1 0 0 94.6 10
 1 1 0 55 100
 0 0 2 40.44 0.5
 2 1 0 37.04 1
 2 1 1 33.09 56
 3 0 0 31.57 20
 3 0 1 29.56 3
 2 2 0 27.37 3
 3 1 0 26.28 6
 3 0 2 24.79 4
 2 0 3 23.28 4
 2 2 2 22.52 3
 3 1 2 21.99 3
 2 1 3 21.49 6
 3 2 1 21.06 4
 4 1 0 20.7 10
 4 1 1 20.08 3
 1 0 4 19.83 3
 5 0 0 19.01 3
 1 1 4 18.9 2
 2 0 4 18.58 3
 3 3 0 18.29 2
 3 3 1 17.73 5
 2 1 4 17.54 1
 5 0 2 17.2 2
 3 3 2 16.52 3
 4 2 2 16.34 3
 2 2 4 16.19 2
 1 0 5 15.86 1
 6 0 0 15.72 1
 5 1 2 15.59 3
 6 0 1 15.4 1
 4 3 1 15.22 2
 5 2 0 15.08 0.5
 5 2 1 14.94 0.5
 3 2 4 14.8 2
 4 3 2 14.45 0.5
 5 2 2 14.15 1
 2 2 5 13.88 1
 3 3 4 13.76 4
 5 3 0 13.51 2
 4 2 4 13.39 1
 6 2 0 13.1 1
 4 1 5 12.71 3
 2 1 6 12.6 2
 6 2 2 12.46 0.5
 4 3 4 12.31 1
 4 4 3 12.14 1
 6 3 1 11.76 2
 8 0 1 11.68 2
 7 2 0 11.54 2
 7 1 3 11.35 1
 7 0 4 11.16 2
 6 2 4 10.99 2
 8 1 1 10.9 2
 6 4 1 10.7 1
 7 3 2 10.35 1
 7 3 3 9.98 0.5
 6 5 1 9.88 1
 7 4 1 9.79 0.5
 8 3 0 9.68 2
 8 3 1 9.61 0.5
 10 0 0 9.47 1
 10 0 2 9.21 0.5
 9 2 2 9.12 0.5
 6 6 1 9.04 1
 8 4 0 8.98 1
 8 4 1 8.95 0.5
 9 3 1 8.73 0.5
 11 0 1 8.58 0.5
 10 2 1 8.47 2
 7 6 1 8.37 2
 7 6 2 8.26 1
 11 1 2 8.1 1

# End of data set 381663


