##############################################################################
#                                                                            #
# H-La-O-S         # La2[SO4]3[H2O]9                               #  545247 #
#                                                                            #
##############################################################################
#                                                                            #
#                           Pearson's Crystal Data                           #
#      Crystal Structure Database for Inorganic Compounds (on DVD)           #
#                              Release 2017/18                               #
#                  Editors: Pierre Villars and Karin Cenzual                 #
#                                                                            #
#   Copyright (c) ASM International & Material Phases Data System (MPDS),    #
# Switzerland & National Institute for Materials Science (NIMS), Japan, 2017 #
#                   All rights reserved. Version 2017.08                     #
#                                                                            #
#   This copy of Pearson's Crystal Data is licensed to:                      #
#   University of Alberta, Chemistry Department, 1-5 Installations License         #
#                                                                            #
##############################################################################

data_545247
_audit_creation_date                     2017-12-04
_audit_creation_method
;
Pearson's Crystal Data browser
;
#_database_code_PCD                      545247

# Entry summary

_chemical_formula_structural             'La~2~ [S O~4~]~3~ [H~2~ O]~9~'
_chemical_formula_sum                    'H18 La2 O21 S3'
_chemical_name_mineral                   ?
_chemical_compound_source                ?
_chemical_name_structure_type            La~2~[SO~4~]~3~[H~2~O]~9~,hP52,176
_chemical_formula_weight                 728.1

# Bibliographic data

_publ_section_title
;
Some Properties of Hydrated Sulphates of Rare-earth Elements in the Cerium Group
;
_journal_coden_ASTM                      RJICAQ
_journal_name_full                       'Russ. J. Inorg. Chem.'
_journal_year                            1968
_journal_volume                          13
_journal_page_first                      924
_journal_page_last                       927
_journal_language                        English
loop_
 _publ_author_name
 _publ_author_address
'Mironov N.N.'
'Tarkhova T.N.'
;
Nizhnii Novgorod Horki Physicotechnical Research Institute
Nizhnii Novgorod
Russia
;
'Trofimova L.N.'
;
Ukrainian Academy of Sciences
Kiev
Ukraine
;
'Polyashov I.M.'
'Grishin I.A.'
;
Ekaterinburg Ural Gorky State University
Ekaterinburg
Russia
;

# Standardized crystallographic data

_cell_length_a                           10.88
_cell_length_b                           10.88
_cell_length_c                           8.13
_cell_angle_alpha                        90
_cell_angle_beta                         90
_cell_angle_gamma                        120
_cell_volume                             833.4
_cell_formula_units_Z                    2
_space_group_IT_number                   176
_space_group_name_H-M_alt                'P 63/m'
loop_
 _space_group_symop_id
 _space_group_symop_operation_xyz
 1 'x, y, z'
 2 '-x+y, -x, 1/2-z'
 3 '-x+y, -x, z'
 4 '-x, -y, -z'
 5 '-x, -y, 1/2+z'
 6 '-y, x-y, 1/2-z'
 7 '-y, x-y, z'
 8 'x, y, 1/2-z'
 9 'x-y, x, -z'
 10 'x-y, x, 1/2+z'
 11 'y, -x+y, -z'
 12 'y, -x+y, 1/2+z'

# Atomic positions taken from type-defining entry

loop_
 _atom_type_symbol
 O
 S
 La
loop_
 _atom_site_label
 _atom_site_type_symbol
 _atom_site_symmetry_multiplicity
 _atom_site_Wyckoff_symbol
 _atom_site_fract_x
 _atom_site_fract_y
 _atom_site_fract_z
 _atom_site_occupancy
 O1 O 12 i 0.2249 0.2595 0.0997 1
 O2 O 12 i 0.5375 0.157 0.0215 1
 O3 O 6 h 0.1023 0.4373 0.25 1
 O4 O 6 h 0.1674 0.0538 0.25 1
 S1 S 6 h 0.26096 0.20988 0.25 1
 O5 O 6 h 0.4064 0.244 0.25 1
 La1 La 2 d 0.666667 0.333333 0.25 1
 La2 La 2 b 0 0 0 1


_exptl_crystal_colour                    ?
_exptl_crystal_density_meas              ?
_exptl_crystal_density_diffrn            2.90
_cell_measurement_temperature            ?
_cell_measurement_radiation              'X-rays, Cu Ka'
_cell_measurement_reflns_used            ?
_diffrn_ambient_temperature              ?
_diffrn_measurement_device               film
_diffrn_measurement_device_type          ?
_diffrn_radiation_type                   ?
_diffrn_reflns_number                    ?
_exptl_absorpt_coefficient_mu            ?
_exptl_absorpt_correction_type           ?
_computing_structure_solution            ?
_refine_ls_number_parameters             ?
_refine_ls_number_reflns                 ?
_refine_ls_R_factor_gt                   ?
_refine_ls_wR_factor_gt                  ?

# Published diffraction lines

loop_
 _refln_index_h
 _refln_index_k
 _refln_index_l
 _refln_d_spacing
 _refln_intensity_meas
 1 0 1 62.2 5
 1 1 0 54.6 5
 2 1 1 32.7 7
 3 0 0 31.8 3
 2 0 2 30.8 7
 2 1 2 26.6 7
 3 1 2 22 7
 2 1 3 21.5 5
 4 1 0 20.7 7
 2 2 3 19.2 5
 1 1 4 19 5
 4 0 3 17.6 3
 4 2 2 16.4 3
 5 1 2 15.8 3
 5 2 0 15.2 3
 4 2 3 15 2
 4 1 4 14.4 5
 3 1 5 13.7 5
 0 0 6 13.4 3
 5 3 2 12.9 5
 7 1 0 12.6 5
 7 0 3 12 7
 7 2 0 11.6 2
 8 1 2 10.7 3
 9 0 1 10.5 3
 8 4 0 10.3 3
 9 0 2 10.2 3

# End of data set 545247


