##############################################################################
#                                                                            #
# La-O-Si          # La2[Si2O7] ht                                 #  557201 #
#                                                                            #
##############################################################################
#                                                                            #
#                           Pearson's Crystal Data                           #
#      Crystal Structure Database for Inorganic Compounds (on DVD)           #
#                              Release 2017/18                               #
#                  Editors: Pierre Villars and Karin Cenzual                 #
#                                                                            #
#   Copyright (c) ASM International & Material Phases Data System (MPDS),    #
# Switzerland & National Institute for Materials Science (NIMS), Japan, 2017 #
#                   All rights reserved. Version 2017.08                     #
#                                                                            #
#   This copy of Pearson's Crystal Data is licensed to:                      #
#   University of Alberta, Chemistry Department, 1-5 Installations License         #
#                                                                            #
##############################################################################

data_557201
_audit_creation_date                     2017-12-04
_audit_creation_method
;
Pearson's Crystal Data browser
;
#_database_code_PCD                      557201

# Entry summary

_chemical_formula_structural             'La~2~ [Si~2~ O~7~]'
_chemical_formula_sum                    'La2 O7 Si2'
_chemical_name_mineral                   ?
_chemical_compound_source                ?
_chemical_name_structure_type            Ca~2~[P~2~O~7~],mP44,14
_chemical_formula_weight                 446.0

# Bibliographic data

_publ_section_title
;
Crystal structures of the high-temperature forms of Ln~2~Si~2~O~7~ (Ln= La, Ce, Pr, Nd, Sm) revisited
;
_journal_coden_ASTM                      JACTAW
_journal_name_full                       'J. Am. Ceram. Soc.'
_journal_year                            1994
_journal_volume                          77
_journal_page_first                      2968
_journal_page_last                       2970
_journal_language                        English
loop_
 _publ_author_name
 _publ_author_address
'Tas A.C.'
;
Ankara Middle East Technical University
Department of Metallurgical Engineering
Ankara
Turkey
;
'Akinc M.'
;
Iowa State Ames University of Science and Technology
Department of Materials Science and Engineering
Ames
U.S.A. Iowa
;

# Standardized crystallographic data

_cell_length_a                           5.4104
_cell_length_b                           8.7935
_cell_length_c                           14.0767
_cell_angle_alpha                        90
_cell_angle_beta                         110.528
_cell_angle_gamma                        90
_cell_volume                             627.2
_cell_formula_units_Z                    4
_space_group_IT_number                   14
_space_group_name_H-M_alt                'P 1 21/c 1'
loop_
 _space_group_symop_id
 _space_group_symop_operation_xyz
 1 'x, y, z'
 2 '-x, -y, -z'
 3 '-x, 1/2+y, 1/2-z'
 4 'x, 1/2-y, 1/2+z'

# Atomic positions taken from type-defining entry

loop_
 _atom_type_symbol
 La
 O
 Si
loop_
 _atom_site_label
 _atom_site_type_symbol
 _atom_site_symmetry_multiplicity
 _atom_site_Wyckoff_symbol
 _atom_site_fract_x
 _atom_site_fract_y
 _atom_site_fract_z
 _atom_site_occupancy
 La1 La 4 e 0.0219 0.8128 0.2652 1
 O1 O 4 e 0.072 0.3434 0.0559 1
 O2 O 4 e 0.2308 0.2362 0.4113 1
 O3 O 4 e 0.2532 0.0954 0.236 1
 O4 O 4 e 0.283 0.5389 0.2589 1
 Si1 Si 4 e 0.2932 0.2666 0.0281 1
 O5 O 4 e 0.3285 0.0894 0.0637 1
 La2 La 4 e 0.3507 0.6142 0.0902 1
 Si2 Si 4 e 0.4099 0.0137 0.1798 1
 O6 O 4 e 0.5611 0.3536 0.0825 1
 O7 O 4 e 0.6772 0.3463 0.3369 1


_exptl_crystal_colour                    ?
_exptl_crystal_density_meas              4.69
_exptl_crystal_density_diffrn            4.72
_cell_measurement_temperature            ?
_cell_measurement_radiation              'X-rays, Cu Ka'
_cell_measurement_reflns_used            ?
_diffrn_ambient_temperature              ?
_diffrn_measurement_device               'automatic diffractometer'
_diffrn_measurement_device_type          ?
_diffrn_radiation_type                   ?
_diffrn_reflns_number                    ?
_exptl_absorpt_coefficient_mu            ?
_exptl_absorpt_correction_type           ?
_computing_structure_solution            ?
_refine_ls_number_parameters             ?
_refine_ls_number_reflns                 ?
_refine_ls_R_factor_gt                   ?
_refine_ls_wR_factor_gt                  ?

# End of data set 557201


