##############################################################################
#                                                                            #
# La-O-S           # La2[SO4]O2 mon                                # 1510264 #
#                                                                            #
##############################################################################
#                                                                            #
#                           Pearson's Crystal Data                           #
#      Crystal Structure Database for Inorganic Compounds (on DVD)           #
#                              Release 2017/18                               #
#                  Editors: Pierre Villars and Karin Cenzual                 #
#                                                                            #
#   Copyright (c) ASM International & Material Phases Data System (MPDS),    #
# Switzerland & National Institute for Materials Science (NIMS), Japan, 2017 #
#                   All rights reserved. Version 2017.08                     #
#                                                                            #
#   This copy of Pearson's Crystal Data is licensed to:                      #
#   University of Alberta, Chemistry Department, 1-5 Installations License         #
#                                                                            #
##############################################################################

data_1510264
_audit_creation_date                     2017-12-05
_audit_creation_method
;
Pearson's Crystal Data browser
;
#_database_code_PCD                      1510264

# Entry summary

_chemical_formula_structural             'La~2~ [S O~4~] O~2~'
_chemical_formula_sum                    'La2 O6 S'
_chemical_name_mineral                   ?
_chemical_compound_source                ?
_chemical_name_structure_type            La~2~[SO~4~]O~2~,mS36,15
_chemical_formula_weight                 405.9

# Bibliographic data

_publ_section_title
'Structural study of lanthanum oxysulfate (LaO)~2~SO~4~'                      
_journal_coden_ASTM                      MRBUAC
_journal_name_full                       'Mater. Res. Bull.'
_journal_year                            1997
_journal_volume                          32
_journal_page_first                      43
_journal_page_last                       50
_journal_language                        English
loop_
 _publ_author_name
 _publ_author_address
'Zhukov S.G.'
;
Moscow M.V. Lomonosov State University
Department of Chemistry
Moscow
Russia
;
'Yatsenko A.V.'
;
Moscow M.V. Lomonosov State University
Department of Chemistry
Moscow
Russia
;
'Chernyshev V.V.'
;
Moscow M.V. Lomonosov State University
Department of Chemistry
Moscow
Russia
;
'Trunov V.A.'
;
Russian Academy of Sciences
Petersburg Nuclear Physics Institute
Gatchina
Russia
;
'Tserkovnaya E.'
;
Russian Academy of Sciences
Petersburg Nuclear Physics Institute
Gatchina
Russia
;
'Antson O.K.'
;
Finland Technical Research Center
Reactor Laboratory
Espoo
Finland
;
'H\"ols\"a J.'
;
Turku University
Department of Chemistry
Turku
Finland
;
'Baules P.'
;
Centre National de la Recherche Scientifique (CNRS)
Toulouse
France
;
'Schenk H.'
;
Amsterdam University
Laboratorium voor Kristallografie
Amsterdam
Netherlands
;

# Standardized crystallographic data

_cell_length_a                           14.342
_cell_length_b                           4.2827
_cell_length_c                           8.3853
_cell_angle_alpha                        90
_cell_angle_beta                         107.
_cell_angle_gamma                        90
_cell_volume                             492.54
_cell_formula_units_Z                    4
_space_group_IT_number                   15
_space_group_name_H-M_alt                'C 1 2/c 1'
loop_
 _space_group_symop_id
 _space_group_symop_operation_xyz
 1 'x, y, z'
 2 '-x, -y, -z'
 3 '-x, y, 1/2-z'
 4 'x, -y, 1/2+z'
 5 '1/2+x, 1/2+y, z'
 6 '1/2-x, 1/2-y, -z'
 7 '1/2-x, 1/2+y, 1/2-z'
 8 '1/2+x, 1/2-y, 1/2+z'
loop_
 _atom_type_symbol
 O
 La
 S
loop_
 _atom_site_label
 _atom_site_type_symbol
 _atom_site_symmetry_multiplicity
 _atom_site_Wyckoff_symbol
 _atom_site_fract_x
 _atom_site_fract_y
 _atom_site_fract_z
 _atom_site_occupancy
 O1 O 8 f -0.0037 0.2615 0.3931 1
 O O 8 f 0.2472 0.0 0.1218 1
 La La 8 f 0.3331 -0.0063 0.4165 1
 O2 O 8 f 0.4125 0.3655 0.2067 1
 S S 4 e 0 0.0514 0.25 1


_exptl_crystal_colour                    ?
_exptl_crystal_density_meas              ?
_exptl_crystal_density_diffrn            5.47
_cell_measurement_temperature            ?
_cell_measurement_radiation              'neutrons, time-of-flight'
_cell_measurement_reflns_used            ?
_diffrn_ambient_temperature              ?
_diffrn_measurement_device               'automatic diffractometer'
_diffrn_measurement_device_type          ?
_diffrn_radiation_type                   'neutrons, time-of-flight'
_diffrn_reflns_number                    ?
_exptl_absorpt_coefficient_mu            ?
_exptl_absorpt_correction_type           ?
_computing_structure_solution
'starting values derived from related structure'                              
_refine_ls_number_parameters             ?
_refine_ls_number_reflns                 ?
_refine_ls_R_factor_gt                   ?
_refine_ls_wR_factor_gt                  ?
_pd_proc_ls_proof_R_factor               0.07
_pd_proc_ls_proof_wR_factor              0.08
_refine_ls_R_I_factor                    0.15

# End of data set 1510264


