##############################################################################
#                                                                            #
# Br-La            # La2Br5                                        #  542085 #
#                                                                            #
##############################################################################
#                                                                            #
#                           Pearson's Crystal Data                           #
#      Crystal Structure Database for Inorganic Compounds (on DVD)           #
#                              Release 2017/18                               #
#                  Editors: Pierre Villars and Karin Cenzual                 #
#                                                                            #
#   Copyright (c) ASM International & Material Phases Data System (MPDS),    #
# Switzerland & National Institute for Materials Science (NIMS), Japan, 2017 #
#                   All rights reserved. Version 2017.08                     #
#                                                                            #
#   This copy of Pearson's Crystal Data is licensed to:                      #
#   University of Alberta, Chemistry Department, 1-5 Installations License         #
#                                                                            #
##############################################################################

data_542085
_audit_creation_date                     2017-12-04
_audit_creation_method
;
Pearson's Crystal Data browser
;
#_database_code_PCD                      542085

# Entry summary

_chemical_formula_structural             'La~2~ Br~5~'
_chemical_formula_sum                    'Br5 La2'
_chemical_name_mineral                   ?
_chemical_compound_source                ?
_chemical_name_structure_type            Pr~2~I~5~,mP14,11
_chemical_formula_weight                 677.3

# Bibliographic data

_publ_section_title
'Three Bromides of Lanthanum: LaBr~2~, La~2~Br~5~, and LaBr~3~'               
_journal_coden_ASTM                      ZAACAB
_journal_name_full                       'Z. Anorg. Allg. Chem.'
_journal_year                            1989
_journal_volume                          575
_journal_page_first                      61
_journal_page_last                       70
_journal_language                        English
loop_
 _publ_author_name
 _publ_author_address
'Kr\"amer K.W.'
;
Giessen Justus Liebig University
Institut f\"ur Anorganische Chemie
Giessen
Germany
;
'Schleid T.'
;
Giessen Justus Liebig University
Institut f\"ur Anorganische Chemie
Giessen
Germany
;
'Schulze M.'
;
Giessen Justus Liebig University
Institut f\"ur Anorganische Chemie
Giessen
Germany
;
'Urland W.'
;
Hannover Gottfried Wilhelm Leibniz University
Institut f\"ur Anorganische Chemie
Hannover
Germany
;
'Meyer G.'
;
Hannover Gottfried Wilhelm Leibniz University
Institut f\"ur Anorganische Chemie
Hannover
Germany
;

# Standardized crystallographic data

_cell_length_a                           7.8909
_cell_length_b                           4.2489
_cell_length_c                           13.423
_cell_angle_alpha                        90
_cell_angle_beta                         88.4
_cell_angle_gamma                        90
_cell_volume                             449.87
_cell_formula_units_Z                    2
_space_group_IT_number                   11
_space_group_name_H-M_alt                'P 1 21/m 1'
loop_
 _space_group_symop_id
 _space_group_symop_operation_xyz
 1 'x, y, z'
 2 '-x, -y, -z'
 3 '-x, 1/2+y, -z'
 4 'x, 1/2-y, z'
loop_
 _atom_type_symbol
 La
 Br
loop_
 _atom_site_label
 _atom_site_type_symbol
 _atom_site_symmetry_multiplicity
 _atom_site_Wyckoff_symbol
 _atom_site_fract_x
 _atom_site_fract_y
 _atom_site_fract_z
 _atom_site_occupancy
 La1 La 2 e 0.0783 0.25 0.16277 1
 Br3 Br 2 e 0.1542 0.25 0.3857 1
 Br5 Br 2 e 0.1768 0.25 0.7702 1
 Br2 Br 2 e 0.4605 0.25 0.1738 1
 La2 La 2 e 0.5753 0.25 0.66441 1
 Br4 Br 2 e 0.6463 0.25 0.4295 1
 Br1 Br 2 e 0.8128 0.25 0.9921 1


_exptl_crystal_colour                    black
_exptl_crystal_density_meas              ?
_exptl_crystal_density_diffrn            5.00
_cell_measurement_temperature            ?
_cell_measurement_radiation              'X-rays, Cu Ka'
_cell_measurement_reflns_used            ?
_diffrn_ambient_temperature              ?
_diffrn_measurement_device               'automatic diffractometer'
_diffrn_measurement_device_type          'Siemens AED'
_diffrn_radiation_type                   'X-rays, Mo Ka'
_diffrn_radiation_wavelength             0.7107
_diffrn_reflns_number                    5363
_diffrn_reflns_theta_min                 3
_diffrn_reflns_theta_max                 30
_exptl_absorpt_coefficient_mu            30.541
_exptl_absorpt_correction_type           yes
_computing_structure_solution            'direct methods, Fourier synthesis'
_refine_ls_number_parameters             ?
_refine_ls_number_reflns                 1356
_refine_ls_R_factor_gt                   0.067
_refine_ls_wR_factor_gt                  0.055

# End of data set 542085


