##############################################################################
#                                                                            #
# Ge-La-S          # La2GeS5                                       #  536555 #
#                                                                            #
##############################################################################
#                                                                            #
#                           Pearson's Crystal Data                           #
#      Crystal Structure Database for Inorganic Compounds (on DVD)           #
#                              Release 2017/18                               #
#                  Editors: Pierre Villars and Karin Cenzual                 #
#                                                                            #
#   Copyright (c) ASM International & Material Phases Data System (MPDS),    #
# Switzerland & National Institute for Materials Science (NIMS), Japan, 2017 #
#                   All rights reserved. Version 2017.08                     #
#                                                                            #
#   This copy of Pearson's Crystal Data is licensed to:                      #
#   University of Alberta, Chemistry Department, 1-5 Installations License         #
#                                                                            #
##############################################################################

data_536555
_audit_creation_date                     2017-12-04
_audit_creation_method
;
Pearson's Crystal Data browser
;
#_database_code_PCD                      536555

# Entry summary

_chemical_formula_structural             'La~2~ Ge S~5~'
_chemical_formula_sum                    'Ge La2 S5'
_chemical_name_mineral                   ?
_chemical_compound_source                ?
_chemical_name_structure_type            La~2~GeS~5~,mP32,14
_chemical_formula_weight                 510.7

# Bibliographic data

_publ_section_title
'Etude structurale des syst\`emes Ln~2~S~3~-GeS~2~'                           
_journal_coden_ASTM                      JSSCBI
_journal_name_full                       'J. Solid State Chem.'
_journal_year                            1975
_journal_volume                          13
_journal_page_first                      65
_journal_page_last                       76
_journal_language                        French
loop_
 _publ_author_name
 _publ_author_address
'Michelet A.'
;
Centre National de la Recherche Scientifique (CNRS)
Laboratoire de Chimie Structurale
Paris
France
;
'Mazurier M.A.'
;
Centre National de la Recherche Scientifique (CNRS)
Laboratoire de Chimie Structurale
Paris
France
;
'Collin G.'
;
Centre National de la Recherche Scientifique (CNRS)
Laboratoire de Chimie Structurale
Paris
France
;
'Laruelle P.'
;
Centre National de la Recherche Scientifique (CNRS)
Laboratoire de Chimie Structurale
Paris
France
;
'Flahaut J.'
;
Centre National de la Recherche Scientifique (CNRS)
Laboratoire de Chimie Structurale
Paris
France
;

# Standardized crystallographic data

_cell_length_a                           7.675
_cell_length_b                           12.72
_cell_length_c                           7.887
_cell_angle_alpha                        90
_cell_angle_beta                         101.4
_cell_angle_gamma                        90
_cell_volume                             754.8
_cell_formula_units_Z                    4
_space_group_IT_number                   14
_space_group_name_H-M_alt                'P 1 21/c 1'
loop_
 _space_group_symop_id
 _space_group_symop_operation_xyz
 1 'x, y, z'
 2 '-x, -y, -z'
 3 '-x, 1/2+y, 1/2-z'
 4 'x, 1/2-y, 1/2+z'
loop_
 _atom_type_symbol
 S
 La
 Ge
loop_
 _atom_site_label
 _atom_site_type_symbol
 _atom_site_symmetry_multiplicity
 _atom_site_Wyckoff_symbol
 _atom_site_fract_x
 _atom_site_fract_y
 _atom_site_fract_z
 _atom_site_occupancy
 S(4) S 4 e 0.1287 0.2949 0.1977 1
 S(2) S 4 e 0.1387 0.621 0.4996 1
 La(2) La 4 e 0.1599 0.6667 0.1351 1
 S(1) S 4 e 0.1706 0.0259 0.3815 1
 La(1) La 4 e 0.2395 0.0935 0.0419 1
 Ge Ge 4 e 0.338 0.3835 0.0912 1
 S(5) S 4 e 0.5349 0.2674 0.0474 1
 S(3) S 4 e 0.5784 0.0061 0.2163 1


_exptl_crystal_colour                    ?
_exptl_crystal_density_meas              ?
_exptl_crystal_density_diffrn            4.49
_cell_measurement_temperature            ?
_cell_measurement_radiation              'X-rays, Cu Ka'
_cell_measurement_reflns_used            ?
_diffrn_ambient_temperature              ?
_diffrn_measurement_device               'Weissenberg photographs'
_diffrn_measurement_device_type          ?
_diffrn_radiation_type                   X-rays
_diffrn_reflns_number                    ?
_exptl_absorpt_coefficient_mu            ?
_exptl_absorpt_correction_type           ?
_computing_structure_solution            'starting values from the literature'
_refine_ls_number_parameters             ?
_refine_ls_number_reflns                 ?
_refine_ls_R_factor_gt                   0.038
_refine_ls_wR_factor_gt                  ?

# Published diffraction lines

loop_
 _refln_index_h
 _refln_index_k
 _refln_index_l
 _refln_d_spacing
 _refln_intensity_meas
 0 1 0 74.9 8
 0 -1 1 64.7 4
 -1 1 1 54.3 4
 1 0 2 49.51 12
 0 1 2 48.36 2
 1 1 1 46.43 7
 -1 1 2 43.84 5
 1 1 2 39.04 44
 0 2 0 37.6 75
 0 1 3 37.05 57
 0 2 1 36.07 54
 -1 1 3 34.77 20
 0 0 4 32.06 69
 2 1 1 31.04 11
 -2 2 0 30 11
 -2 2 1 29.36 12
 2 0 3 28.64 34
 -2 1 3 28.15 46
 -1 2 3 27.84 2
 -2 2 2 27.25 50
 2 1 3 25.59 37
 1 2 3 25.36 56
 0 3 0 25.09 35
 0 3 1 24.62 55
 0 1 5 24.24 100
 -1 3 2 23.44 29
 -2 3 0 23.21 16
 2 2 2 22.85 62

# End of data set 536555


