##############################################################################
#                                                                            #
# B-La-Ni          # La2Ni5B4                                      #  461367 #
#                                                                            #
##############################################################################
#                                                                            #
#                           Pearson's Crystal Data                           #
#      Crystal Structure Database for Inorganic Compounds (on DVD)           #
#                              Release 2017/18                               #
#                  Editors: Pierre Villars and Karin Cenzual                 #
#                                                                            #
#   Copyright (c) ASM International & Material Phases Data System (MPDS),    #
# Switzerland & National Institute for Materials Science (NIMS), Japan, 2017 #
#                   All rights reserved. Version 2017.08                     #
#                                                                            #
#   This copy of Pearson's Crystal Data is licensed to:                      #
#   University of Alberta, Chemistry Department, 1-5 Installations License         #
#                                                                            #
##############################################################################

data_461367
_audit_creation_date                     2017-12-01
_audit_creation_method
;
Pearson's Crystal Data browser
;
#_database_code_PCD                      461367

# Entry summary

_chemical_formula_structural             'La~2~ Ni~5~ B~4~'
_chemical_formula_sum                    'B4 La2 Ni5'
_chemical_name_mineral                   ?
_chemical_compound_source                ?
_chemical_name_structure_type            Nd~2~Ni~5~B~4~,mS22,12
_chemical_formula_weight                 614.6

# Bibliographic data

_publ_section_title
'New borides of structural type Nd~2~Ni~5~B~4~'                               
_journal_coden_ASTM                      INOMAF
_journal_name_full                       'Inorg. Mater.'
_journal_year                            1986
_journal_volume                          22
_journal_page_first                      1683
_journal_page_last                       1685
_journal_language                        English
loop_
 _publ_author_name
 _publ_author_address
'Kuz'ma Y.B.'
;
Lviv Ivan Franko National University
Lviv
Ukraine
;

# Standardized crystallographic data

_cell_length_a                           9.786
_cell_length_b                           5.158
_cell_length_c                           6.7889
_cell_angle_alpha                        90
_cell_angle_beta                         125.205
_cell_angle_gamma                        90
_cell_volume                             280
_cell_formula_units_Z                    2
_space_group_IT_number                   12
_space_group_name_H-M_alt                'C 1 2/m 1'
loop_
 _space_group_symop_id
 _space_group_symop_operation_xyz
 1 'x, y, z'
 2 '-x, -y, -z'
 3 '-x, y, -z'
 4 'x, -y, z'
 5 '1/2+x, 1/2+y, z'
 6 '1/2-x, 1/2-y, -z'
 7 '1/2-x, 1/2+y, -z'
 8 '1/2+x, 1/2-y, z'
loop_
 _atom_type_symbol
 Ni
 B
 La
loop_
 _atom_site_label
 _atom_site_type_symbol
 _atom_site_symmetry_multiplicity
 _atom_site_Wyckoff_symbol
 _atom_site_fract_x
 _atom_site_fract_y
 _atom_site_fract_z
 _atom_site_occupancy
 Ni(1) Ni 8 j 0.0743 0.251 0.3707 1
 B(1) B 4 i 0.222 0 0.341 1
 B(2) B 4 i 0.402 0 0.361 1
 La La 4 i 0.7259 0 0.1487 1
 Ni(2) Ni 2 a 0 0 0 1


_exptl_crystal_colour                    ?
_exptl_crystal_density_meas              ?
_exptl_crystal_density_diffrn            7.29
_cell_measurement_temperature            ?
_cell_measurement_radiation              'X-rays, Cr Ka'
_cell_measurement_reflns_used            ?
_diffrn_ambient_temperature              ?
_diffrn_measurement_device               'automatic diffractometer'
_diffrn_measurement_device_type          DRON-2
_diffrn_radiation_type                   'X-rays, Cr Ka'
_diffrn_reflns_number                    ?
_exptl_absorpt_coefficient_mu            ?
_exptl_absorpt_correction_type           ?
_computing_structure_solution            'starting values from the literature'
_refine_ls_number_parameters             ?
_refine_ls_number_reflns                 ?
_refine_ls_R_factor_gt                   0.21
_refine_ls_wR_factor_gt                  ?
_pd_proc_ls_proof_R_factor               ?
_pd_proc_ls_proof_wR_factor              ?
_refine_ls_R_I_factor                    ?

# Published diffraction lines

loop_
 _refln_index_h
 _refln_index_k
 _refln_index_l
 _refln_d_spacing
 _refln_intensity_meas
 1 0 1 4.01 6
 -1 2 1 3.02 30
 1 1 1 2.78 12
 -3 2 1 2.75 30
 -2 3 0 2.62 30
 -3 1 1 2.57 24
 -4 2 0 2.41 20
 -3 3 1 2.37 20
 0 1 2 2.35 50
 -2 1 2 2.25 50
 -2 2 2 2.17 40
 -1 3 1 2.07 40
 2 0 2 2.05 50
 -2 4 0 1.847 8
 -4 3 2 1.741 20
 -4 1 2 1.628 16
 -4 4 2 1.583 21
 -1 2 3 1.565 12
 -1 4 1 1.533 16
 -5 1 1 1.524 12
 1 1 3 1.515 40
 0 3 2 1.501 12
 3 1 3 1.483 12
 1 3 1 1.467 24
 0 4 0 1.388 30
 2 2 2 1.376 40
 -1 3 3 1.37 50
 5 0 1 1.308 30
 3 2 1 1.293 60
 -5 4 3 1.264 12
 3 1 3 1.209 100
 -5 1 3 1.174 80

# End of data set 461367


