##############################################################################
#                                                                            #
# La-Rh            # La2Rh7 ht1                                    #  452205 #
#                                                                            #
##############################################################################
#                                                                            #
#                           Pearson's Crystal Data                           #
#      Crystal Structure Database for Inorganic Compounds (on DVD)           #
#                              Release 2017/18                               #
#                  Editors: Pierre Villars and Karin Cenzual                 #
#                                                                            #
#   Copyright (c) ASM International & Material Phases Data System (MPDS),    #
# Switzerland & National Institute for Materials Science (NIMS), Japan, 2017 #
#                   All rights reserved. Version 2017.08                     #
#                                                                            #
#   This copy of Pearson's Crystal Data is licensed to:                      #
#   University of Alberta, Chemistry Department, 1-5 Installations License         #
#                                                                            #
##############################################################################

data_452205
_audit_creation_date                     2017-12-01
_audit_creation_method
;
Pearson's Crystal Data browser
;
#_database_code_PCD                      452205

# Entry summary

_chemical_formula_structural             'La~2~ Rh~7~'
_chemical_formula_sum                    'La2 Rh7'
_chemical_name_mineral                   ?
_chemical_compound_source                ?
_chemical_name_structure_type            Ce~2~Ni~7~,hP36,194
_chemical_formula_weight                 998.1

# Bibliographic data

_publ_section_title                      'The Lanthanum-Rhodium System'
_journal_coden_ASTM                      TMSAAB
_journal_name_full                       'Trans. Metall. Soc. AIME'
_journal_year                            1969
_journal_volume                          245
_journal_page_first                      1561
_journal_page_last                       1568
_journal_language                        English
loop_
 _publ_author_name
 _publ_author_address
'Singh P.P.'
;
Louisiana Baton Rouge University (and Agricultural and Mechanical College)
Department of Engineering Mechanics
Baton Rouge
U.S.A. Louisiana
;
'Raman A.'
;
Louisiana Baton Rouge University (and Agricultural and Mechanical College)
Department of Engineering Mechanics
Baton Rouge
U.S.A. Louisiana
;

# Standardized crystallographic data

_cell_length_a                           5.296
_cell_length_b                           5.296
_cell_length_c                           26.13
_cell_angle_alpha                        90
_cell_angle_beta                         90
_cell_angle_gamma                        120
_cell_volume                             634.7
_cell_formula_units_Z                    4
_space_group_IT_number                   194
_space_group_name_H-M_alt                'P 63/m m c'
loop_
 _space_group_symop_id
 _space_group_symop_operation_xyz
 1 'x, y, z'
 2 '-x+y, -x, 1/2-z'
 3 '-x+y, -x, z'
 4 '-x+y, y, 1/2-z'
 5 '-x+y, y, z'
 6 '-x, -x+y, -z'
 7 '-x, -x+y, 1/2+z'
 8 '-x, -y, -z'
 9 '-x, -y, 1/2+z'
 10 '-y, -x, 1/2-z'
 11 '-y, -x, z'
 12 '-y, x-y, 1/2-z'
 13 '-y, x-y, z'
 14 'x, x-y, 1/2-z'
 15 'x, x-y, z'
 16 'x, y, 1/2-z'
 17 'x-y, -y, -z'
 18 'x-y, -y, 1/2+z'
 19 'x-y, x, -z'
 20 'x-y, x, 1/2+z'
 21 'y, -x+y, -z'
 22 'y, -x+y, 1/2+z'
 23 'y, x, -z'
 24 'y, x, 1/2+z'

# Atomic positions taken from type-defining entry

loop_
 _atom_type_symbol
 Rh
 La
loop_
 _atom_site_label
 _atom_site_type_symbol
 _atom_site_symmetry_multiplicity
 _atom_site_Wyckoff_symbol
 _atom_site_fract_x
 _atom_site_fract_y
 _atom_site_fract_z
 _atom_site_occupancy
 Rh1 Rh 12 k 0.1662 0.3324 0.0854 1
 Rh2 Rh 6 h 0.1649 0.3298 0.25 1
 Rh3 Rh 4 f 0.333333 0.666667 0.1666 1
 La1 La 4 f 0.333333 0.666667 0.5302 1
 La2 La 4 f 0.333333 0.666667 0.6747 1
 Rh4 Rh 4 e 0 0 0.1670 1
 Rh5 Rh 2 a 0 0 0 1


_exptl_crystal_colour                    ?
_exptl_crystal_density_meas              ?
_exptl_crystal_density_diffrn            10.45
_cell_measurement_temperature            ?
_cell_measurement_radiation              'X-rays, Cu Ka'
_cell_measurement_reflns_used            ?
_diffrn_ambient_temperature              ?
_diffrn_measurement_device               'Guinier-de Wolff film'
_diffrn_measurement_device_type          ?
_diffrn_radiation_type                   ?
_diffrn_reflns_number                    ?
_exptl_absorpt_coefficient_mu            ?
_exptl_absorpt_correction_type           ?
_computing_structure_solution            ?
_refine_ls_number_parameters             ?
_refine_ls_number_reflns                 ?
_refine_ls_R_factor_gt                   ?
_refine_ls_wR_factor_gt                  ?

# Published diffraction lines

loop_
 _refln_index_h
 _refln_index_k
 _refln_index_l
 _refln_d_spacing
 _refln_intensity_meas
 0 0 8 0.5575 1
 1 0 6 0.5914 1
 1 0 7 0.7032 7
 0 1 8 0.843 8
 1 0 9 0.984 3
 2 0 0 1.1294 7
 1 1 6 1.1566 9
 2 0 3 1.204 2
 0 0 12 1.2446 7
 0 1 11 1.3346 7
 1 1 8 1.3934 2
 2 0 6 1.434 3
 1 0 12 1.5282 3
 2 0 8 1.693 2
 2 0 9 1.8247 0.5
 2 0 12 2.3875 5
 1 0 16 2.506 1
 1 2 8 2.53 7
 3 0 2 2.5865 5
 2 0 14 2.8336 7
 1 1 16 3.0739 0.5
 2 2 0 3.3656 7
 2 0 17 3.652 3
 2 1 15 3.9294 0.5
 1 3 7 4.08 0.5

# End of data set 452205


