##############################################################################
#                                                                            #
# B-La-Ni          # La3Ni13B2                                     #  538787 #
#                                                                            #
##############################################################################
#                                                                            #
#                           Pearson's Crystal Data                           #
#      Crystal Structure Database for Inorganic Compounds (on DVD)           #
#                              Release 2017/18                               #
#                  Editors: Pierre Villars and Karin Cenzual                 #
#                                                                            #
#   Copyright (c) ASM International & Material Phases Data System (MPDS),    #
# Switzerland & National Institute for Materials Science (NIMS), Japan, 2017 #
#                   All rights reserved. Version 2017.08                     #
#                                                                            #
#   This copy of Pearson's Crystal Data is licensed to:                      #
#   University of Alberta, Chemistry Department, 1-5 Installations License         #
#                                                                            #
##############################################################################

data_538787
_audit_creation_date                     2017-12-04
_audit_creation_method
;
Pearson's Crystal Data browser
;
#_database_code_PCD                      538787

# Entry summary

_chemical_formula_structural             'La~3~ Ni~13~ B~2~'
_chemical_formula_sum                    'B2 La3 Ni13'
_chemical_name_mineral                   ?
_chemical_compound_source                ?
_chemical_name_structure_type            Nd~3~Ni~13~B~2~,hP18,191
_chemical_formula_weight                 1201.4

# Bibliographic data

_publ_section_title
'Hydrogen absorption in La~3~Ni~13~B~2~'                                      
_journal_coden_ASTM                      JCOMAH
_journal_name_full                       'J. Less-Common Met.'
_journal_year                            1983
_journal_volume                          90
_journal_page_first                      L1
_journal_page_last                       L4
_journal_language                        English
loop_
 _publ_author_name
 _publ_author_address
'Spada F.E.'
;
California La Jolla San Diego University
Department of Chemistry
La Jolla
U.S.A. California
;
'Oesterreicher H.'
;
California La Jolla San Diego University
Department of Chemistry
La Jolla
U.S.A. California
;

# Standardized crystallographic data

_cell_length_a                           5.094
_cell_length_b                           5.094
_cell_length_c                           10.986
_cell_angle_alpha                        90
_cell_angle_beta                         90
_cell_angle_gamma                        120
_cell_volume                             246.9
_cell_formula_units_Z                    1
_space_group_IT_number                   191
_space_group_name_H-M_alt                'P 6/m m m'
loop_
 _space_group_symop_id
 _space_group_symop_operation_xyz
 1 'x, y, z'
 2 '-x+y, -x, -z'
 3 '-x+y, -x, z'
 4 '-x+y, y, -z'
 5 '-x+y, y, z'
 6 '-x, -x+y, -z'
 7 '-x, -x+y, z'
 8 '-x, -y, -z'
 9 '-x, -y, z'
 10 '-y, -x, -z'
 11 '-y, -x, z'
 12 '-y, x-y, -z'
 13 '-y, x-y, z'
 14 'x, x-y, -z'
 15 'x, x-y, z'
 16 'x, y, -z'
 17 'x-y, -y, -z'
 18 'x-y, -y, z'
 19 'x-y, x, -z'
 20 'x-y, x, z'
 21 'y, -x+y, -z'
 22 'y, -x+y, z'
 23 'y, x, -z'
 24 'y, x, z'

# Atomic positions taken from type-defining entry

loop_
 _atom_type_symbol
 Ni
 La
 B
loop_
 _atom_site_label
 _atom_site_type_symbol
 _atom_site_symmetry_multiplicity
 _atom_site_Wyckoff_symbol
 _atom_site_fract_x
 _atom_site_fract_y
 _atom_site_fract_z
 _atom_site_occupancy
 Ni1 Ni 6 i 0.5 0 0.134 1
 Ni2 Ni 4 h 0.333333 0.666667 0.323 1
 Ni3 Ni 3 g 0.5 0 0.5 1
 La1 La 2 e 0 0 0.328 1
 B1 B 2 c 0.333333 0.666667 0 1
 La2 La 1 a 0 0 0 1


_exptl_crystal_colour                    ?
_exptl_crystal_density_meas              ?
_exptl_crystal_density_diffrn            8.08
_cell_measurement_temperature            ?
_cell_measurement_radiation              'X-rays, Cr Ka, Cu Ka'
_cell_measurement_reflns_used            ?
_diffrn_ambient_temperature              ?
_diffrn_measurement_device               film
_diffrn_measurement_device_type          ?
_diffrn_radiation_type                   ?
_diffrn_reflns_number                    ?
_exptl_absorpt_coefficient_mu            ?
_exptl_absorpt_correction_type           ?
_computing_structure_solution            ?
_refine_ls_number_parameters             ?
_refine_ls_number_reflns                 ?
_refine_ls_R_factor_gt                   ?
_refine_ls_wR_factor_gt                  ?

# Published diffraction lines

loop_
 _refln_index_h
 _refln_index_k
 _refln_index_l
 _refln_d_spacing
 _refln_intensity_meas
 1 0 0 44.18 10
 0 0 3 36.83 10
 1 0 3 28.22 80
 1 1 0 25.5 50
 1 1 2 23.09 5
 2 0 0 22.08 70
 1 1 3 20.94 100
 2 0 3 18.92 5
 1 1 4 18.55 5
 0 0 6 18.31 20
 1 0 6 16.92 5
 2 1 3 15.19 20
 1 1 6 14.88 10
 3 0 0 14.73 10
 2 1 4 14.19 5
 2 0 6 14.1 10
 3 0 3 13.66 20
 2 2 0 12.74 20
 1 0 9 11.76 5
 3 1 3 11.61 10
 3 0 6 11.49 5
 3 1 4 11.15 5
 2 2 5 11.01 10
 2 2 6 10.46 10

# End of data set 538787


