##############################################################################
#                                                                            #
# Ir-La            # La7Ir3                                        #  525117 #
#                                                                            #
##############################################################################
#                                                                            #
#                           Pearson's Crystal Data                           #
#      Crystal Structure Database for Inorganic Compounds (on DVD)           #
#                              Release 2017/18                               #
#                  Editors: Pierre Villars and Karin Cenzual                 #
#                                                                            #
#   Copyright (c) ASM International & Material Phases Data System (MPDS),    #
# Switzerland & National Institute for Materials Science (NIMS), Japan, 2017 #
#                   All rights reserved. Version 2017.08                     #
#                                                                            #
#   This copy of Pearson's Crystal Data is licensed to:                      #
#   University of Alberta, Chemistry Department, 1-5 Installations License         #
#                                                                            #
##############################################################################

data_525117
_audit_creation_date                     2017-12-01
_audit_creation_method
;
Pearson's Crystal Data browser
;
#_database_code_PCD                      525117

# Entry summary

_chemical_formula_structural             'La~7~ Ir~3~'
_chemical_formula_sum                    'Ir3 La7'
_chemical_name_mineral                   ?
_chemical_compound_source                ?
_chemical_name_structure_type            Th~7~Fe~3~,hP20,186
_chemical_formula_weight                 1549.0

# Bibliographic data

_publ_section_title
;
Superconductivity in Binary Alloy Systems of the Rare Earths and of Thorium with Pt-Group Metals
;
_journal_coden_ASTM                      PHRVAO
_journal_name_full                       'Phys. Rev.'
_journal_year                            1965
_journal_volume                          137
_journal_page_first                      A119
_journal_page_last                       A127
_journal_language                        English
loop_
 _publ_author_name
 _publ_author_address
'Gevalle T.H.'
;
AT and T Bell Laboratories Inc.
Murray Hill
U.S.A. New Jersey
;
'Matthias B.T.'
;
California La Jolla San Diego University
La Jolla
U.S.A. California
;
'Compton V.B.'
;
AT and T Bell Laboratories Inc.
Murray Hill
U.S.A. New Jersey
;
'Corenzwit E.'
;
AT and T Bell Laboratories Inc.
Murray Hill
U.S.A. New Jersey
;
'Hull G.W. Jr.'
;
AT and T Bell Laboratories Inc.
Murray Hill
U.S.A. New Jersey
;
'Longinotti L.D.'
;
AT and T Bell Laboratories Inc.
Murray Hill
U.S.A. New Jersey
;

# Standardized crystallographic data

_cell_length_a                           10.235
_cell_length_b                           10.235
_cell_length_c                           6.473
_cell_angle_alpha                        90
_cell_angle_beta                         90
_cell_angle_gamma                        120
_cell_volume                             587.23
_cell_formula_units_Z                    2
_space_group_IT_number                   186
_space_group_name_H-M_alt                'P 63 m c'
loop_
 _space_group_symop_id
 _space_group_symop_operation_xyz
 1 'x, y, z'
 2 '-x+y, -x, z'
 3 '-x+y, y, z'
 4 '-x, -x+y, 1/2+z'
 5 '-x, -y, 1/2+z'
 6 '-y, -x, z'
 7 '-y, x-y, z'
 8 'x, x-y, z'
 9 'x-y, -y, 1/2+z'
 10 'x-y, x, 1/2+z'
 11 'y, -x+y, 1/2+z'
 12 'y, x, 1/2+z'

# Atomic positions taken from type-defining entry

loop_
 _atom_type_symbol
 Ir
 La
loop_
 _atom_site_label
 _atom_site_type_symbol
 _atom_site_symmetry_multiplicity
 _atom_site_Wyckoff_symbol
 _atom_site_fract_x
 _atom_site_fract_y
 _atom_site_fract_z
 _atom_site_occupancy
 Ir1 Ir 6 c 0.185 0.815 0.25 1
 La1 La 6 c 0.544 0.456 0.03 1
 La2 La 6 c 0.874 0.126 0.31 1
 La3 La 2 b 0.333333 0.666667 0.0 1


_exptl_crystal_colour                    ?
_exptl_crystal_density_meas              ?
_exptl_crystal_density_diffrn            8.76
_cell_measurement_temperature            ?
_cell_measurement_radiation              'X-rays, Cr Ka, Cu Ka'
_cell_measurement_reflns_used            ?
_diffrn_ambient_temperature              ?
_diffrn_measurement_device               film
_diffrn_measurement_device_type          ?
_diffrn_radiation_type                   ?
_diffrn_reflns_number                    ?
_exptl_absorpt_coefficient_mu            ?
_exptl_absorpt_correction_type           ?
_computing_structure_solution            ?
_refine_ls_number_parameters             ?
_refine_ls_number_reflns                 ?
_refine_ls_R_factor_gt                   ?
_refine_ls_wR_factor_gt                  ?

# End of data set 525117


