##############################################################################
#                                                                            #
# La-O-V           # La[VO4]                                       #  381641 #
#                                                                            #
##############################################################################
#                                                                            #
#                           Pearson's Crystal Data                           #
#      Crystal Structure Database for Inorganic Compounds (on DVD)           #
#                              Release 2017/18                               #
#                  Editors: Pierre Villars and Karin Cenzual                 #
#                                                                            #
#   Copyright (c) ASM International & Material Phases Data System (MPDS),    #
# Switzerland & National Institute for Materials Science (NIMS), Japan, 2017 #
#                   All rights reserved. Version 2017.08                     #
#                                                                            #
#   This copy of Pearson's Crystal Data is licensed to:                      #
#   University of Alberta, Chemistry Department, 1-5 Installations License         #
#                                                                            #
##############################################################################

data_381641
_audit_creation_date                     2017-12-01
_audit_creation_method
;
Pearson's Crystal Data browser
;
#_database_code_PCD                      381641

# Entry summary

_chemical_formula_structural             'La [V O~4~]'
_chemical_formula_sum                    'La O4 V'
_chemical_name_mineral                   ?
_chemical_compound_source                ?
_chemical_name_structure_type            Ce[PO~4~],mP24,14
_chemical_formula_weight                 253.8

# Bibliographic data

_publ_section_title
;
Sur quelques solutions solides de structure Sr~3~(PO~4~)~2~ caracteris\'ees par des substitutions lacunaires ou coupl\'ees
;
_journal_coden_ASTM                      BSCFAS
_journal_name_full                       'Bull. Soc. Chim. Fr.'
_journal_year                            1968
_journal_volume                          ?
_journal_page_first                      2769
_journal_page_last                       2780
_journal_language                        French
loop_
 _publ_author_name
 _publ_author_address
'Le Flem G.'
;
Talence Bordeaux I University
Laboratoire de Chimie Min\'erale Structurale
Talence
France
;
'Olazcuaga R.'
;
Talence Bordeaux I University
Laboratoire de Chimie Min\'erale Structurale
Talence
France
;

# Standardized crystallographic data

_cell_length_a                           6.69
_cell_length_b                           7.34
_cell_length_c                           8.3566
_cell_angle_alpha                        90
_cell_angle_beta                         125.65
_cell_angle_gamma                        90
_cell_volume                             333.4
_cell_formula_units_Z                    4
_space_group_IT_number                   14
_space_group_name_H-M_alt                'P 1 21/c 1'
loop_
 _space_group_symop_id
 _space_group_symop_operation_xyz
 1 'x, y, z'
 2 '-x, -y, -z'
 3 '-x, 1/2+y, 1/2-z'
 4 'x, 1/2-y, 1/2+z'

# Atomic positions taken from type-defining entry

loop_
 _atom_type_symbol
 O
 La
 V
loop_
 _atom_site_label
 _atom_site_type_symbol
 _atom_site_symmetry_multiplicity
 _atom_site_Wyckoff_symbol
 _atom_site_fract_x
 _atom_site_fract_y
 _atom_site_fract_z
 _atom_site_occupancy
 O1 O 4 e 0.1171 0.332 0.1189 1
 La1 La 4 e 0.18174 0.65914 0.28182 1
 O2 O 4 e 0.195 0.0055 0.2492 1
 V1 V 4 e 0.3077 0.1635 0.1953 1
 O3 O 4 e 0.3297 0.1054 0.0255 1
 O4 O 4 e 0.584 0.2164 0.3732 1


_exptl_crystal_colour                    ?
_exptl_crystal_density_meas              5.06(5)
_exptl_crystal_density_diffrn            5.06
_cell_measurement_temperature            ?
_cell_measurement_radiation              'X-rays, Cu Ka'
_cell_measurement_reflns_used            ?
_diffrn_ambient_temperature              ?
_diffrn_measurement_device               film
_diffrn_measurement_device_type          ?
_diffrn_radiation_type                   ?
_diffrn_reflns_number                    ?
_exptl_absorpt_coefficient_mu            ?
_exptl_absorpt_correction_type           ?
_computing_structure_solution            ?
_refine_ls_number_parameters             ?
_refine_ls_number_reflns                 ?
_refine_ls_R_factor_gt                   ?
_refine_ls_wR_factor_gt                  ?

# Published diffraction lines

loop_
 _refln_index_h
 _refln_index_k
 _refln_index_l
 _refln_d_spacing
 _refln_intensity_meas
 1 1 1 36.2 40
 2 0 0 33.9 30
 1 2 0 32 100
 2 1 0 30.6 12
 0 1 -2 29.58 80
 2 1 1 25.63 25
 2 1 -2 25.45 22
 1 1 2 25.07 13
 2 2 -1 24.8 10
 3 0 0 22.69 20
 1 0 -3 22.26 24
 2 2 -2 21.84 19
 2 1 2 20.08 1
 0 3 -2 19.46 5
 3 2 0 19.21 32
 0 4 0 18.36 15
 2 2 2 18.13 9
 1 3 2 17.93 17
 3 1 -3 17.54 20
 4 0 -2 16.93 13
 4 1 0 16.54 12
 3 1 2 16.22 8
 1 4 -2 16 27

# End of data set 381641


