##############################################################################
#                                                                            #
# La-O-V           # La[VO4]                                       #  549457 #
#                                                                            #
##############################################################################
#                                                                            #
#                           Pearson's Crystal Data                           #
#      Crystal Structure Database for Inorganic Compounds (on DVD)           #
#                              Release 2017/18                               #
#                  Editors: Pierre Villars and Karin Cenzual                 #
#                                                                            #
#   Copyright (c) ASM International & Material Phases Data System (MPDS),    #
# Switzerland & National Institute for Materials Science (NIMS), Japan, 2017 #
#                   All rights reserved. Version 2017.08                     #
#                                                                            #
#   This copy of Pearson's Crystal Data is licensed to:                      #
#   University of Alberta, Chemistry Department, 1-5 Installations License         #
#                                                                            #
##############################################################################

data_549457
_audit_creation_date                     2017-12-04
_audit_creation_method
;
Pearson's Crystal Data browser
;
#_database_code_PCD                      549457

# Entry summary

_chemical_formula_structural             'La [V O~4~]'
_chemical_formula_sum                    'La O4 V'
_chemical_name_mineral                   ?
_chemical_compound_source                ?
_chemical_name_structure_type            Ce[PO~4~],mP24,14
_chemical_formula_weight                 253.8

# Bibliographic data

_publ_section_title
;
Etude de la structure de l'orthovanadate de lanthane
;
_journal_coden_ASTM                      CHDCAQ
_journal_name_full                       'C. R. Seances Acad. Sci., Ser. C'
_journal_year                            1971
_journal_volume                          273
_journal_page_first                      455
_journal_page_last                       458
_journal_language                        French
loop_
 _publ_author_name
 _publ_author_address
'Brusset H.'
;
Chatenay-Malabry Ecole Centrale des Arts et Manufactures
Centre de Recherche de Chimie
Chatenay-Malabry
France
;
'Madaule Aubry F.'
;
Chatenay-Malabry Ecole Centrale des Arts et Manufactures
Centre de Recherche de Chimie
Chatenay-Malabry
France
;
'Mah\'e R.'
;
Chatenay-Malabry Ecole Centrale des Arts et Manufactures
Centre de Recherche de Chimie
Chatenay-Malabry
France
;
'Boursier C.'
;
Chatenay-Malabry Ecole Centrale des Arts et Manufactures
Centre de Recherche de Chimie
Chatenay-Malabry
France
;

# Standardized crystallographic data

_cell_length_a                           6.719
_cell_length_b                           7.269
_cell_length_c                           8.3871
_cell_angle_alpha                        90
_cell_angle_beta                         125.817
_cell_angle_gamma                        90
_cell_volume                             332.16
_cell_formula_units_Z                    4
_space_group_IT_number                   14
_space_group_name_H-M_alt                'P 1 21/c 1'
loop_
 _space_group_symop_id
 _space_group_symop_operation_xyz
 1 'x, y, z'
 2 '-x, -y, -z'
 3 '-x, 1/2+y, 1/2-z'
 4 'x, 1/2-y, 1/2+z'
loop_
 _atom_type_symbol
 O
 La
 V
loop_
 _atom_site_label
 _atom_site_type_symbol
 _atom_site_symmetry_multiplicity
 _atom_site_Wyckoff_symbol
 _atom_site_fract_x
 _atom_site_fract_y
 _atom_site_fract_z
 _atom_site_occupancy
 O2 O 4 e 0.112 0.349 0.109 1
 La La 4 e 0.1723 0.6572 0.2766 1
 O1 O 4 e 0.197 -0.033 0.245 1
 V V 4 e 0.3136 0.1648 0.2016 1
 O4 O 4 e 0.336 0.108 0.017 1
 O3 O 4 e 0.604 0.222 0.384 1


_exptl_crystal_colour                    colorless
_exptl_crystal_density_meas              5.03
_exptl_crystal_density_diffrn            5.08
_cell_measurement_temperature            ?
_cell_measurement_radiation              X-rays
_cell_measurement_reflns_used            ?
_diffrn_ambient_temperature              ?
_diffrn_measurement_device               'Weissenberg photographs'
_diffrn_measurement_device_type          ?
_diffrn_radiation_type                   'X-rays, Mo Ka'
_diffrn_reflns_number                    ?
_exptl_absorpt_coefficient_mu            14.84
_exptl_absorpt_correction_type           yes
_computing_structure_solution            'Patterson and Fourier synthesis'
_refine_ls_number_parameters             ?
_refine_ls_number_reflns                 ?
_refine_ls_R_factor_gt                   0.15
_refine_ls_wR_factor_gt                  ?

# End of data set 549457


